LAMMPS (28 Feb 2019)
OMP_NUM_THREADS environment is not set. Defaulting to 1 thread. (src/comm.cpp:87)
  using 1 OpenMP thread(s) per MPI task
# Solvated 5-mer peptide

units	        real
atom_style	full

atom_modify     map array
pair_style	lj/charmm/coul/long 8.0 10.0 10.0
bond_style      harmonic
angle_style     charmm
dihedral_style  charmm
improper_style  harmonic
kspace_style	pppm 0.0001

read_data	data.peptide
  orthogonal box = (36.8402 41.0137 29.7681) to (64.2116 68.3851 57.1395)
  1 by 2 by 2 MPI processor grid
  reading atoms ...
  2004 atoms
  reading velocities ...
  2004 velocities
  scanning bonds ...
  3 = max bonds/atom
  scanning angles ...
  6 = max angles/atom
  scanning dihedrals ...
  14 = max dihedrals/atom
  scanning impropers ...
  1 = max impropers/atom
  reading bonds ...
  1365 bonds
  reading angles ...
  786 angles
  reading dihedrals ...
  207 dihedrals
  reading impropers ...
  12 impropers
  4 = max # of 1-2 neighbors
  7 = max # of 1-3 neighbors
  14 = max # of 1-4 neighbors
  18 = max # of special neighbors

neighbor	2.0 bin
neigh_modify	delay 5

timestep	2.0

thermo_style	multi
thermo		50

python         post_force_callback here """
from narupa.lammps import LammpsHook
from lammps import lammps
from mpi4py import MPI
comm = MPI.COMM_WORLD
h = LammpsHook()
def post_force_callback(lmp,v):
  h.lammps_hook(lmp,comm)
"""

fix		1 all nvt temp 275.0 275.0 100.0 tchain 1
fix     3 all python/invoke 1 post_force post_force_callback

group		peptide type <= 12
84 atoms in group peptide

#dump		1 peptide atom 10 dump.peptide

#dump		2 peptide image 25 image.*.jpg type type #		axes yes 0.8 0.02 view 60 -30 bond atom 0.5
#dump_modify	2 pad 3

#dump		3 peptide movie 25 movie.mpg type type #		axes yes 0.8 0.02 view 60 -30 bond atom 0.5
#dump_modify	3 pad 3

#compute		bnd all property/local btype batom1 batom2
#dump		2 peptide local 300 dump.bond index c_bnd[1] c_bnd[2] c_bnd[3]

run		300000
PPPM initialization ...
  using 12-bit tables for long-range coulomb (src/kspace.cpp:321)
  G vector (1/distance) = 0.268725
  grid = 15 15 15
  stencil order = 5
  estimated absolute RMS force accuracy = 0.0228209
  estimated relative force accuracy = 6.87243e-05
  using double precision FFTs
  3d grid and FFT values/proc = 4312 960
Neighbor list info ...
  update every 1 steps, delay 5 steps, check yes
  max neighbors/atom: 2000, page size: 100000
  master list distance cutoff = 12
  ghost atom cutoff = 12
  binsize = 6, bins = 5 5 5
  1 neighbor lists, perpetual/occasional/extra = 1 0 0
  (1) pair lj/charmm/coul/long, perpetual
      attributes: half, newton on
      pair build: half/bin/newton
      stencil: half/bin/3d/newton
      bin: standard
Per MPI rank memory allocation (min/avg/max) = 14.78 | 14.98 | 15.18 Mbytes
---------------- Step        0 ----- CPU =      0.0000 (sec) ----------------
TotEng   =     -5237.4579 KinEng   =      1134.9186 Temp     =       190.0857 
PotEng   =     -6372.3765 E_bond   =        16.5572 E_angle  =        36.3727 
E_dihed  =        15.5190 E_impro  =         1.9426 E_vdwl   =       692.8945 
E_coul   =     26772.2646 E_long   =    -33907.9271 Press    =     20361.9982 
---------------- Step       50 ----- CPU =      0.3743 (sec) ----------------
TotEng   =     -4961.6151 KinEng   =      1403.0192 Temp     =       234.9895 
PotEng   =     -6364.6343 E_bond   =       853.2909 E_angle  =       378.3674 
E_dihed  =        19.1482 E_impro  =         2.3770 E_vdwl   =       847.6829 
E_coul   =     25439.0156 E_long   =    -33904.5163 Press    =    -25080.2556 
---------------- Step      100 ----- CPU =      0.9645 (sec) ----------------
TotEng   =     -4275.2689 KinEng   =      1854.2673 Temp     =       310.5683 
PotEng   =     -6129.5363 E_bond   =       119.0199 E_angle  =       370.2590 
E_dihed  =        17.4593 E_impro  =         3.5802 E_vdwl   =       892.0615 
E_coul   =     26371.5628 E_long   =    -33903.4790 Press    =     14435.7210 
---------------- Step      150 ----- CPU =      1.3590 (sec) ----------------
TotEng   =     -3795.7172 KinEng   =      2023.3169 Temp     =       338.8821 
PotEng   =     -5819.0341 E_bond   =       224.4908 E_angle  =       243.1595 
E_dihed  =        21.4187 E_impro  =         2.8469 E_vdwl   =       795.3564 
E_coul   =     26794.5183 E_long   =    -33900.8247 Press    =      8862.6418 
---------------- Step      200 ----- CPU =      1.8695 (sec) ----------------
TotEng   =     -3860.7213 KinEng   =      1784.6822 Temp     =       298.9136 
PotEng   =     -5645.4035 E_bond   =       751.8374 E_angle  =       342.0882 
E_dihed  =        26.4875 E_impro  =         3.5910 E_vdwl   =       657.8608 
E_coul   =     26474.6897 E_long   =    -33901.9582 Press    =    -20712.1606 
---------------- Step      250 ----- CPU =      2.2609 (sec) ----------------
TotEng   =     -4288.4609 KinEng   =      1576.9392 Temp     =       264.1190 
PotEng   =     -5865.4002 E_bond   =       154.5720 E_angle  =       296.2713 
E_dihed  =        18.8414 E_impro  =         1.5571 E_vdwl   =       685.8961 
E_coul   =     26880.4353 E_long   =    -33902.9735 Press    =     18606.0478 
---------------- Step      300 ----- CPU =      2.7316 (sec) ----------------
TotEng   =     -4625.0635 KinEng   =      1508.5537 Temp     =       252.6653 
PotEng   =     -6133.6172 E_bond   =       641.8137 E_angle  =       265.5044 
E_dihed  =        17.0431 E_impro  =         1.9002 E_vdwl   =       799.0018 
E_coul   =     26045.4541 E_long   =    -33904.3344 Press    =    -13633.3890 
---------------- Step      350 ----- CPU =      3.1617 (sec) ----------------
TotEng   =     -4670.0765 KinEng   =      1494.6298 Temp     =       250.3332 
PotEng   =     -6164.7062 E_bond   =       292.7019 E_angle  =       317.4592 
E_dihed  =        19.5897 E_impro  =         1.8508 E_vdwl   =       786.9778 
E_coul   =     26323.9848 E_long   =    -33907.2704 Press    =      3419.9082 
---------------- Step      400 ----- CPU =      3.6871 (sec) ----------------
TotEng   =     -4450.1404 KinEng   =      1639.9376 Temp     =       274.6705 
PotEng   =     -6090.0779 E_bond   =       315.6616 E_angle  =       288.3037 
E_dihed  =        27.3557 E_impro  =         1.6566 E_vdwl   =       795.2605 
E_coul   =     26387.2958 E_long   =    -33905.6119 Press    =      4458.2174 
---------------- Step      450 ----- CPU =      4.1206 (sec) ----------------
TotEng   =     -4125.4149 KinEng   =      1701.2853 Temp     =       284.9456 
PotEng   =     -5826.7001 E_bond   =       633.3692 E_angle  =       322.4055 
E_dihed  =        17.7607 E_impro  =         0.9366 E_vdwl   =       775.1763 
E_coul   =     26320.5506 E_long   =    -33896.8991 Press    =    -11603.0329 
---------------- Step      500 ----- CPU =      4.6564 (sec) ----------------
TotEng   =     -3945.4502 KinEng   =      1814.8744 Temp     =       303.9704 
PotEng   =     -5760.3246 E_bond   =       255.6483 E_angle  =       336.3992 
E_dihed  =        21.5488 E_impro  =         3.7556 E_vdwl   =       668.3669 
E_coul   =     26855.5513 E_long   =    -33901.5946 Press    =     12311.9718 
---------------- Step      550 ----- CPU =      5.1128 (sec) ----------------
TotEng   =     -4081.0831 KinEng   =      1731.5814 Temp     =       290.0198 
PotEng   =     -5812.6645 E_bond   =       586.2154 E_angle  =       306.0694 
E_dihed  =        21.1995 E_impro  =         3.7651 E_vdwl   =       694.6792 
E_coul   =     26478.0809 E_long   =    -33902.6740 Press    =     -8112.3164 
---------------- Step      600 ----- CPU =      5.6992 (sec) ----------------
TotEng   =     -4360.9150 KinEng   =      1643.1006 Temp     =       275.2003 
PotEng   =     -6004.0156 E_bond   =       389.0736 E_angle  =       328.6616 
E_dihed  =        20.2516 E_impro  =         2.8065 E_vdwl   =       687.5767 
E_coul   =     26472.3978 E_long   =    -33904.7834 Press    =        88.7152 
---------------- Step      650 ----- CPU =      6.1987 (sec) ----------------
TotEng   =     -4566.7404 KinEng   =      1496.3623 Temp     =       250.6233 
PotEng   =     -6063.1027 E_bond   =       362.8898 E_angle  =       319.9135 
E_dihed  =        20.3789 E_impro  =         1.1594 E_vdwl   =       763.3267 
E_coul   =     26373.1335 E_long   =    -33903.9044 Press    =      2780.8776 
---------------- Step      700 ----- CPU =      7.0262 (sec) ----------------
TotEng   =     -4553.5411 KinEng   =      1574.6422 Temp     =       263.7343 
PotEng   =     -6128.1833 E_bond   =       532.3836 E_angle  =       300.7697 
E_dihed  =        17.0653 E_impro  =         1.1502 E_vdwl   =       760.7792 
E_coul   =     26164.1997 E_long   =    -33904.5309 Press    =     -7311.5992 
---------------- Step      750 ----- CPU =      7.4326 (sec) ----------------
TotEng   =     -4350.5380 KinEng   =      1594.1532 Temp     =       267.0022 
PotEng   =     -5944.6912 E_bond   =       329.9576 E_angle  =       356.1098 
E_dihed  =        21.2183 E_impro  =         1.4517 E_vdwl   =       748.7369 
E_coul   =     26498.8823 E_long   =    -33901.0477 Press    =      6516.9845 
---------------- Step      800 ----- CPU =      8.0118 (sec) ----------------
TotEng   =     -4114.2427 KinEng   =      1770.6538 Temp     =       296.5640 
PotEng   =     -5884.8965 E_bond   =       568.0167 E_angle  =       318.5513 
E_dihed  =        17.5139 E_impro  =         1.0557 E_vdwl   =       715.1041 
E_coul   =     26396.5365 E_long   =    -33901.6746 Press    =     -7374.3257 
---------------- Step      850 ----- CPU =      8.4190 (sec) ----------------
TotEng   =     -4047.6520 KinEng   =      1765.7944 Temp     =       295.7501 
PotEng   =     -5813.4464 E_bond   =       427.4275 E_angle  =       335.7160 
E_dihed  =        16.9865 E_impro  =         3.0526 E_vdwl   =       714.6342 
E_coul   =     26586.5671 E_long   =    -33897.8302 Press    =      1739.3002 
---------------- Step      900 ----- CPU =      9.0459 (sec) ----------------
TotEng   =     -4196.9074 KinEng   =      1657.5960 Temp     =       277.6281 
PotEng   =     -5854.5034 E_bond   =       421.4632 E_angle  =       336.7680 
E_dihed  =        19.3185 E_impro  =         4.1884 E_vdwl   =       740.1179 
E_coul   =     26524.4461 E_long   =    -33900.8055 Press    =      1767.5400 
---------------- Step      950 ----- CPU =      9.5087 (sec) ----------------
TotEng   =     -4360.0862 KinEng   =      1592.4434 Temp     =       266.7158 
PotEng   =     -5952.5295 E_bond   =       527.8887 E_angle  =       304.3662 
E_dihed  =        18.1134 E_impro  =         2.6677 E_vdwl   =       783.5036 
E_coul   =     26311.1069 E_long   =    -33900.1761 Press    =     -4654.3614 
---------------- Step     1000 ----- CPU =      9.9622 (sec) ----------------
TotEng   =     -4445.3472 KinEng   =      1574.8978 Temp     =       263.7771 
PotEng   =     -6020.2451 E_bond   =       366.6682 E_angle  =       356.8097 
E_dihed  =        16.3625 E_impro  =         1.7829 E_vdwl   =       742.8805 
E_coul   =     26395.8549 E_long   =    -33900.6038 Press    =      3325.8925 
---------------- Step     1050 ----- CPU =     10.3505 (sec) ----------------
TotEng   =     -4420.3302 KinEng   =      1620.8625 Temp     =       271.4757 
PotEng   =     -6041.1928 E_bond   =       546.5102 E_angle  =       326.0348 
E_dihed  =        16.1874 E_impro  =         4.2431 E_vdwl   =       769.4433 
E_coul   =     26203.6570 E_long   =    -33907.2685 Press    =     -5292.5712 
---------------- Step     1100 ----- CPU =     10.9460 (sec) ----------------
TotEng   =     -4360.1684 KinEng   =      1623.9498 Temp     =       271.9928 
PotEng   =     -5984.1182 E_bond   =       434.8364 E_angle  =       338.4507 
E_dihed  =        17.8820 E_impro  =         1.1080 E_vdwl   =       714.3136 
E_coul   =     26410.4132 E_long   =    -33901.1221 Press    =       659.9707 
---------------- Step     1150 ----- CPU =     11.3428 (sec) ----------------
TotEng   =     -4316.9989 KinEng   =      1662.3743 Temp     =       278.4284 
PotEng   =     -5979.3733 E_bond   =       470.3411 E_angle  =       321.2804 
E_dihed  =        17.2295 E_impro  =         1.6977 E_vdwl   =       847.8479 
E_coul   =     26266.4547 E_long   =    -33904.2246 Press    =      -175.1407 
---------------- Step     1200 ----- CPU =     11.9571 (sec) ----------------
TotEng   =     -4292.5441 KinEng   =      1695.9123 Temp     =       284.0456 
PotEng   =     -5988.4564 E_bond   =       519.8726 E_angle  =       321.2891 
E_dihed  =        16.4157 E_impro  =         2.4671 E_vdwl   =       775.1045 
E_coul   =     26280.5735 E_long   =    -33904.1789 Press    =     -2354.2991 
---------------- Step     1250 ----- CPU =     12.5244 (sec) ----------------
TotEng   =     -4324.4320 KinEng   =      1645.7653 Temp     =       275.6466 
PotEng   =     -5970.1973 E_bond   =       454.1607 E_angle  =       345.5129 
E_dihed  =        20.6847 E_impro  =         3.6380 E_vdwl   =       773.0866 
E_coul   =     26338.8602 E_long   =    -33906.1404 Press    =      1663.1918 
---------------- Step     1300 ----- CPU =     13.0356 (sec) ----------------
TotEng   =     -4369.7716 KinEng   =      1652.4031 Temp     =       276.7584 
PotEng   =     -6022.1747 E_bond   =       516.4209 E_angle  =       326.9940 
E_dihed  =        14.9261 E_impro  =         2.0588 E_vdwl   =       771.7637 
E_coul   =     26251.4640 E_long   =    -33905.8021 Press    =     -3427.0101 
---------------- Step     1350 ----- CPU =     13.4495 (sec) ----------------
TotEng   =     -4377.0848 KinEng   =      1610.8524 Temp     =       269.7991 
PotEng   =     -5987.9371 E_bond   =       462.2714 E_angle  =       359.2284 
E_dihed  =        21.4240 E_impro  =         2.7169 E_vdwl   =       789.9429 
E_coul   =     26279.6430 E_long   =    -33903.1637 Press    =       460.9981 
---------------- Step     1400 ----- CPU =     14.0290 (sec) ----------------
TotEng   =     -4324.3325 KinEng   =      1637.1941 Temp     =       274.2110 
PotEng   =     -5961.5266 E_bond   =       531.7839 E_angle  =       325.5127 
E_dihed  =        19.0604 E_impro  =         3.7222 E_vdwl   =       770.6668 
E_coul   =     26290.0597 E_long   =    -33902.3321 Press    =     -2633.8810 
---------------- Step     1450 ----- CPU =     14.4461 (sec) ----------------
TotEng   =     -4274.9530 KinEng   =      1653.6412 Temp     =       276.9657 
PotEng   =     -5928.5943 E_bond   =       517.9929 E_angle  =       334.0469 
E_dihed  =        18.4980 E_impro  =         1.6259 E_vdwl   =       764.8266 
E_coul   =     26339.5847 E_long   =    -33905.1693 Press    =     -1064.7306 
---------------- Step     1500 ----- CPU =     15.0059 (sec) ----------------
TotEng   =     -4268.0363 KinEng   =      1678.1288 Temp     =       281.0671 
PotEng   =     -5946.1652 E_bond   =       519.5632 E_angle  =       378.3359 
E_dihed  =        21.8601 E_impro  =         2.0767 E_vdwl   =       826.0884 
E_coul   =     26206.1228 E_long   =    -33900.2123 Press    =      1033.2424 
---------------- Step     1550 ----- CPU =     15.4479 (sec) ----------------
TotEng   =     -4356.2397 KinEng   =      1622.9987 Temp     =       271.8335 
PotEng   =     -5979.2384 E_bond   =       543.2085 E_angle  =       347.9896 
E_dihed  =        20.2531 E_impro  =         3.2070 E_vdwl   =       752.0218 
E_coul   =     26260.8487 E_long   =    -33906.7672 Press    =     -3211.2628 
---------------- Step     1600 ----- CPU =     16.0167 (sec) ----------------
TotEng   =     -4426.1297 KinEng   =      1592.7105 Temp     =       266.7605 
PotEng   =     -6018.8402 E_bond   =       451.5902 E_angle  =       347.7937 
E_dihed  =        16.4262 E_impro  =         1.1109 E_vdwl   =       809.0146 
E_coul   =     26260.6352 E_long   =    -33905.4110 Press    =      1661.6926 
---------------- Step     1650 ----- CPU =     16.4277 (sec) ----------------
TotEng   =     -4384.1484 KinEng   =      1653.6298 Temp     =       276.9638 
PotEng   =     -6037.7782 E_bond   =       540.3535 E_angle  =       370.6440 
E_dihed  =        15.1465 E_impro  =         1.0171 E_vdwl   =       790.3998 
E_coul   =     26147.5196 E_long   =    -33902.8588 Press    =     -3015.0539 
---------------- Step     1700 ----- CPU =     17.0377 (sec) ----------------
TotEng   =     -4334.6934 KinEng   =      1668.0199 Temp     =       279.3740 
PotEng   =     -6002.7132 E_bond   =       516.4276 E_angle  =       350.6924 
E_dihed  =        18.0345 E_impro  =         2.1943 E_vdwl   =       807.2342 
E_coul   =     26204.8146 E_long   =    -33902.1110 Press    =     -1427.9867 
---------------- Step     1750 ----- CPU =     17.5229 (sec) ----------------
TotEng   =     -4311.7753 KinEng   =      1644.9241 Temp     =       275.5057 
PotEng   =     -5956.6994 E_bond   =       502.4332 E_angle  =       352.4970 
E_dihed  =        18.7056 E_impro  =         3.2615 E_vdwl   =       763.7146 
E_coul   =     26307.3623 E_long   =    -33904.6736 Press    =       346.9535 
---------------- Step     1800 ----- CPU =     18.0661 (sec) ----------------
TotEng   =     -4297.6088 KinEng   =      1685.9791 Temp     =       282.3819 
PotEng   =     -5983.5879 E_bond   =       551.9695 E_angle  =       365.2307 
E_dihed  =        21.0932 E_impro  =         1.4210 E_vdwl   =       821.5129 
E_coul   =     26162.0441 E_long   =    -33906.8593 Press    =     -2271.6219 
---------------- Step     1850 ----- CPU =     18.6425 (sec) ----------------
TotEng   =     -4320.2505 KinEng   =      1637.4962 Temp     =       274.2616 
PotEng   =     -5957.7467 E_bond   =       516.9435 E_angle  =       325.7232 
E_dihed  =        17.9758 E_impro  =         2.8273 E_vdwl   =       749.1187 
E_coul   =     26333.2005 E_long   =    -33903.5358 Press    =      -416.5982 
---------------- Step     1900 ----- CPU =     19.0751 (sec) ----------------
TotEng   =     -4340.0960 KinEng   =      1617.9789 Temp     =       270.9927 
PotEng   =     -5958.0750 E_bond   =       534.1679 E_angle  =       350.4528 
E_dihed  =        16.3261 E_impro  =         1.7742 E_vdwl   =       793.5652 
E_coul   =     26243.3480 E_long   =    -33897.7092 Press    =     -1864.5800 
---------------- Step     1950 ----- CPU =     19.4941 (sec) ----------------
TotEng   =     -4303.0632 KinEng   =      1637.0675 Temp     =       274.1898 
PotEng   =     -5940.1307 E_bond   =       513.8440 E_angle  =       337.6663 
E_dihed  =        19.4216 E_impro  =         1.5719 E_vdwl   =       782.2573 
E_coul   =     26309.4649 E_long   =    -33904.3567 Press    =      -703.4198 
---------------- Step     2000 ----- CPU =     20.0696 (sec) ----------------
TotEng   =     -4284.2138 KinEng   =      1676.3867 Temp     =       280.7753 
PotEng   =     -5960.6005 E_bond   =       540.6324 E_angle  =       360.0352 
E_dihed  =        16.8952 E_impro  =         2.9819 E_vdwl   =       790.3183 
E_coul   =     26230.1181 E_long   =    -33901.5816 Press    =      -712.1331 
---------------- Step     2050 ----- CPU =     20.4682 (sec) ----------------
TotEng   =     -4316.7412 KinEng   =      1647.8246 Temp     =       275.9915 
PotEng   =     -5964.5658 E_bond   =       525.3793 E_angle  =       354.8672 
E_dihed  =        19.3409 E_impro  =         1.4186 E_vdwl   =       801.4383 
E_coul   =     26237.2661 E_long   =    -33904.2762 Press    =      -537.8166 
---------------- Step     2100 ----- CPU =     21.0228 (sec) ----------------
TotEng   =     -4344.1368 KinEng   =      1646.8734 Temp     =       275.8322 
PotEng   =     -5991.0102 E_bond   =       549.5843 E_angle  =       335.8382 
E_dihed  =        18.2041 E_impro  =         3.5954 E_vdwl   =       796.9071 
E_coul   =     26206.4854 E_long   =    -33901.6247 Press    =     -1237.9485 
---------------- Step     2150 ----- CPU =     21.4597 (sec) ----------------
TotEng   =     -4355.3156 KinEng   =      1678.5680 Temp     =       281.1407 
PotEng   =     -6033.8836 E_bond   =       522.0742 E_angle  =       377.0657 
E_dihed  =        16.8885 E_impro  =         1.0310 E_vdwl   =       773.7934 
E_coul   =     26182.0892 E_long   =    -33906.8256 Press    =      -430.4079 
---------------- Step     2200 ----- CPU =     21.8945 (sec) ----------------
TotEng   =     -4398.3917 KinEng   =      1642.1529 Temp     =       275.0416 
PotEng   =     -6040.5446 E_bond   =       532.0906 E_angle  =       368.1193 
E_dihed  =        19.5535 E_impro  =         2.4136 E_vdwl   =       779.8369 
E_coul   =     26163.7377 E_long   =    -33906.2962 Press    =     -1608.1116 
---------------- Step     2250 ----- CPU =     22.3878 (sec) ----------------
TotEng   =     -4408.1713 KinEng   =      1616.0865 Temp     =       270.6758 
PotEng   =     -6024.2578 E_bond   =       551.4648 E_angle  =       341.7556 
E_dihed  =        16.4362 E_impro  =         2.6932 E_vdwl   =       829.6490 
E_coul   =     26137.6185 E_long   =    -33903.8751 Press    =      -985.7111 
---------------- Step     2300 ----- CPU =     23.0061 (sec) ----------------
TotEng   =     -4388.2455 KinEng   =      1640.0754 Temp     =       274.6936 
PotEng   =     -6028.3209 E_bond   =       523.6068 E_angle  =       322.2621 
E_dihed  =        21.9171 E_impro  =         3.2476 E_vdwl   =       752.2961 
E_coul   =     26252.0424 E_long   =    -33903.6932 Press    =        80.1009 
---------------- Step     2350 ----- CPU =     23.4038 (sec) ----------------
TotEng   =     -4349.2570 KinEng   =      1655.7850 Temp     =       277.3248 
PotEng   =     -6005.0419 E_bond   =       560.6971 E_angle  =       350.4027 
E_dihed  =        18.2134 E_impro  =         0.6318 E_vdwl   =       735.7973 
E_coul   =     26231.9040 E_long   =    -33902.6882 Press    =     -2384.9904 
---------------- Step     2400 ----- CPU =     23.9639 (sec) ----------------
TotEng   =     -4295.8348 KinEng   =      1625.8813 Temp     =       272.3163 
PotEng   =     -5921.7162 E_bond   =       562.0756 E_angle  =       349.7494 
E_dihed  =        18.5236 E_impro  =         3.4470 E_vdwl   =       732.2483 
E_coul   =     26317.5291 E_long   =    -33905.2892 Press    =     -1251.2320 
---------------- Step     2450 ----- CPU =     24.3750 (sec) ----------------
TotEng   =     -4251.1301 KinEng   =      1638.2069 Temp     =       274.3807 
PotEng   =     -5889.3370 E_bond   =       556.5367 E_angle  =       369.5940 
E_dihed  =        23.6317 E_impro  =         3.5854 E_vdwl   =       767.9967 
E_coul   =     26291.2277 E_long   =    -33901.9093 Press    =     -1102.5388 
---------------- Step     2500 ----- CPU =     24.9140 (sec) ----------------
TotEng   =     -4241.3838 KinEng   =      1672.3349 Temp     =       280.0967 
PotEng   =     -5913.7188 E_bond   =       588.0282 E_angle  =       354.0338 
E_dihed  =        22.4846 E_impro  =         2.2747 E_vdwl   =       764.7571 
E_coul   =     26256.1870 E_long   =    -33901.4841 Press    =     -2329.8663 
---------------- Step     2550 ----- CPU =     25.3275 (sec) ----------------
TotEng   =     -4271.9392 KinEng   =      1642.5962 Temp     =       275.1158 
PotEng   =     -5914.5355 E_bond   =       567.5627 E_angle  =       353.6695 
E_dihed  =        19.0560 E_impro  =         3.0960 E_vdwl   =       789.4480 
E_coul   =     26253.1019 E_long   =    -33900.4696 Press    =       532.6127 
---------------- Step     2600 ----- CPU =     25.9076 (sec) ----------------
TotEng   =     -4342.1139 KinEng   =      1607.9105 Temp     =       269.3064 
PotEng   =     -5950.0244 E_bond   =       582.2342 E_angle  =       334.8057 
E_dihed  =        25.2781 E_impro  =         2.9447 E_vdwl   =       876.6083 
E_coul   =     26131.5039 E_long   =    -33903.3993 Press    =      -354.9990 
---------------- Step     2650 ----- CPU =     26.3531 (sec) ----------------
TotEng   =     -4397.9854 KinEng   =      1631.7579 Temp     =       273.3005 
PotEng   =     -6029.7433 E_bond   =       554.1189 E_angle  =       343.6595 
E_dihed  =        16.9731 E_impro  =         1.5295 E_vdwl   =       869.1720 
E_coul   =     26092.1076 E_long   =    -33907.3039 Press    =      1060.2260 
---------------- Step     2700 ----- CPU =     26.9233 (sec) ----------------
TotEng   =     -4450.3983 KinEng   =      1635.5781 Temp     =       273.9404 
PotEng   =     -6085.9763 E_bond   =       542.8833 E_angle  =       339.1509 
E_dihed  =        19.9717 E_impro  =         2.8366 E_vdwl   =       855.6353 
E_coul   =     26057.9141 E_long   =    -33904.3682 Press    =       544.0675 
---------------- Step     2750 ----- CPU =     27.3566 (sec) ----------------
TotEng   =     -4460.7797 KinEng   =      1590.8745 Temp     =       266.4530 
PotEng   =     -6051.6542 E_bond   =       550.7593 E_angle  =       371.9742 
E_dihed  =        18.8180 E_impro  =         3.5321 E_vdwl   =       815.2516 
E_coul   =     26087.9432 E_long   =    -33899.9327 Press    =      -891.2226 
---------------- Step     2800 ----- CPU =     27.9943 (sec) ----------------
TotEng   =     -4371.0999 KinEng   =      1625.5235 Temp     =       272.2563 
PotEng   =     -5996.6234 E_bond   =       583.2410 E_angle  =       339.5932 
E_dihed  =        21.9046 E_impro  =         2.1305 E_vdwl   =       787.7660 
E_coul   =     26171.2424 E_long   =    -33902.5010 Press    =      -803.8529 
---------------- Step     2850 ----- CPU =     28.4126 (sec) ----------------
TotEng   =     -4258.4916 KinEng   =      1695.4449 Temp     =       283.9674 
PotEng   =     -5953.9365 E_bond   =       600.6631 E_angle  =       379.8859 
E_dihed  =        23.9257 E_impro  =         3.0598 E_vdwl   =       758.3653 
E_coul   =     26188.8043 E_long   =    -33908.6407 Press    =     -1960.6127 
---------------- Step     2900 ----- CPU =     28.9591 (sec) ----------------
TotEng   =     -4221.7354 KinEng   =      1724.4611 Temp     =       288.8272 
PotEng   =     -5946.1965 E_bond   =       586.9327 E_angle  =       365.7294 
E_dihed  =        23.1546 E_impro  =         3.7471 E_vdwl   =       818.8467 
E_coul   =     26162.6000 E_long   =    -33907.2071 Press    =         1.8156 
---------------- Step     2950 ----- CPU =     29.3936 (sec) ----------------
TotEng   =     -4297.3996 KinEng   =      1642.0226 Temp     =       275.0197 
PotEng   =     -5939.4222 E_bond   =       582.1845 E_angle  =       355.8004 
E_dihed  =        20.0231 E_impro  =         2.3358 E_vdwl   =       717.0514 
E_coul   =     26281.8378 E_long   =    -33898.6552 Press    =     -2273.9112 
---------------- Step     3000 ----- CPU =     29.9915 (sec) ----------------
TotEng   =     -4392.3621 KinEng   =      1644.7704 Temp     =       275.4800 
PotEng   =     -6037.1324 E_bond   =       557.0030 E_angle  =       374.8973 
E_dihed  =        19.1587 E_impro  =         2.5527 E_vdwl   =       827.6736 
E_coul   =     26083.0928 E_long   =    -33901.5105 Press    =       321.6716 
---------------- Step     3050 ----- CPU =     30.3700 (sec) ----------------
TotEng   =     -4445.1317 KinEng   =      1623.0528 Temp     =       271.8425 
PotEng   =     -6068.1846 E_bond   =       561.0511 E_angle  =       368.9545 
E_dihed  =        22.8303 E_impro  =         2.2314 E_vdwl   =       867.2873 
E_coul   =     26014.8302 E_long   =    -33905.3693 Press    =      -387.1133 
---------------- Step     3100 ----- CPU =     30.9385 (sec) ----------------
TotEng   =     -4432.5829 KinEng   =      1624.3185 Temp     =       272.0545 
PotEng   =     -6056.9014 E_bond   =       571.1044 E_angle  =       362.2963 
E_dihed  =        22.6320 E_impro  =         2.8141 E_vdwl   =       799.6484 
E_coul   =     26090.5651 E_long   =    -33905.9616 Press    =     -1501.3261 
---------------- Step     3150 ----- CPU =     31.3250 (sec) ----------------
TotEng   =     -4369.2290 KinEng   =      1613.3019 Temp     =       270.2094 
PotEng   =     -5982.5309 E_bond   =       583.2684 E_angle  =       358.8623 
E_dihed  =        17.3480 E_impro  =         1.1208 E_vdwl   =       812.3343 
E_coul   =     26147.1519 E_long   =    -33902.6166 Press    =     -1300.5671 
---------------- Step     3200 ----- CPU =     31.9391 (sec) ----------------
TotEng   =     -4284.0210 KinEng   =      1686.8934 Temp     =       282.5351 
PotEng   =     -5970.9143 E_bond   =       596.9822 E_angle  =       357.7559 
E_dihed  =        19.0326 E_impro  =         1.6103 E_vdwl   =       817.3518 
E_coul   =     26137.1740 E_long   =    -33900.8213 Press    =     -1176.5387 
---------------- Step     3250 ----- CPU =     32.3646 (sec) ----------------
TotEng   =     -4274.1836 KinEng   =      1700.2586 Temp     =       284.7736 
PotEng   =     -5974.4422 E_bond   =       562.5473 E_angle  =       358.3241 
E_dihed  =        18.2682 E_impro  =         2.4736 E_vdwl   =       839.4651 
E_coul   =     26147.2540 E_long   =    -33902.7745 Press    =      1110.5834 
---------------- Step     3300 ----- CPU =     33.0855 (sec) ----------------
TotEng   =     -4354.6362 KinEng   =      1619.1505 Temp     =       271.1889 
PotEng   =     -5973.7867 E_bond   =       635.0381 E_angle  =       376.6557 
E_dihed  =        18.2243 E_impro  =         1.5585 E_vdwl   =       839.4762 
E_coul   =     26058.6734 E_long   =    -33903.4129 Press    =     -1923.8458 
---------------- Step     3350 ----- CPU =     33.5102 (sec) ----------------
TotEng   =     -4465.0510 KinEng   =      1625.6532 Temp     =       272.2781 
PotEng   =     -6090.7041 E_bond   =       550.4954 E_angle  =       386.8302 
E_dihed  =        18.4068 E_impro  =         2.9209 E_vdwl   =       812.3030 
E_coul   =     26041.8729 E_long   =    -33903.5333 Press    =      -298.3007 
---------------- Step     3400 ----- CPU =     34.0614 (sec) ----------------
TotEng   =     -4504.8284 KinEng   =      1626.5966 Temp     =       272.4361 
PotEng   =     -6131.4250 E_bond   =       603.9774 E_angle  =       350.0241 
E_dihed  =        17.9973 E_impro  =         1.8705 E_vdwl   =       890.8505 
E_coul   =     25908.4487 E_long   =    -33904.5934 Press    =     -1291.5205 
---------------- Step     3450 ----- CPU =     34.4837 (sec) ----------------
TotEng   =     -4484.4611 KinEng   =      1555.6439 Temp     =       260.5523 
PotEng   =     -6040.1050 E_bond   =       583.0288 E_angle  =       368.9365 
E_dihed  =        14.8518 E_impro  =         1.5511 E_vdwl   =       934.1760 
E_coul   =     25962.5729 E_long   =    -33905.2222 Press    =       222.8666 
---------------- Step     3500 ----- CPU =     35.0362 (sec) ----------------
TotEng   =     -4354.1105 KinEng   =      1680.2724 Temp     =       281.4261 
PotEng   =     -6034.3828 E_bond   =       599.3412 E_angle  =       350.3294 
E_dihed  =        21.4483 E_impro  =         1.3908 E_vdwl   =       772.8863 
E_coul   =     26123.9390 E_long   =    -33903.7178 Press    =     -2711.9883 
---------------- Step     3550 ----- CPU =     35.4861 (sec) ----------------
TotEng   =     -4207.3568 KinEng   =      1673.6337 Temp     =       280.3142 
PotEng   =     -5880.9906 E_bond   =       583.9690 E_angle  =       375.8025 
E_dihed  =        22.1862 E_impro  =         1.4091 E_vdwl   =       737.9207 
E_coul   =     26297.9901 E_long   =    -33900.2681 Press    =     -1448.6757 
---------------- Step     3600 ----- CPU =     35.9796 (sec) ----------------
TotEng   =     -4158.7251 KinEng   =      1698.2663 Temp     =       284.4399 
PotEng   =     -5856.9914 E_bond   =       640.7518 E_angle  =       393.9171 
E_dihed  =        17.6623 E_impro  =         5.9384 E_vdwl   =       831.8780 
E_coul   =     26157.6868 E_long   =    -33904.8256 Press    =      -698.4632 
---------------- Step     3650 ----- CPU =     36.4037 (sec) ----------------
TotEng   =     -4262.6739 KinEng   =      1659.2726 Temp     =       277.9089 
PotEng   =     -5921.9465 E_bond   =       590.8424 E_angle  =       380.8943 
E_dihed  =        20.0981 E_impro  =         2.2835 E_vdwl   =       744.9381 
E_coul   =     26244.7683 E_long   =    -33905.7713 Press    =     -2258.9289 
---------------- Step     3700 ----- CPU =     36.9341 (sec) ----------------
TotEng   =     -4356.0699 KinEng   =      1623.7192 Temp     =       271.9541 
PotEng   =     -5979.7891 E_bond   =       604.0083 E_angle  =       359.2953 
E_dihed  =        20.5932 E_impro  =         3.1024 E_vdwl   =       788.0359 
E_coul   =     26148.6587 E_long   =    -33903.4829 Press    =     -1766.8756 
---------------- Step     3750 ----- CPU =     37.3356 (sec) ----------------
TotEng   =     -4429.0649 KinEng   =      1617.9901 Temp     =       270.9946 
PotEng   =     -6047.0550 E_bond   =       600.9348 E_angle  =       367.1932 
E_dihed  =        19.5371 E_impro  =         2.2445 E_vdwl   =       826.5336 
E_coul   =     26032.9623 E_long   =    -33896.4606 Press    =     -2261.1555 
---------------- Step     3800 ----- CPU =     37.9107 (sec) ----------------
TotEng   =     -4420.9191 KinEng   =      1618.3191 Temp     =       271.0497 
PotEng   =     -6039.2382 E_bond   =       570.5958 E_angle  =       361.0824 
E_dihed  =        22.9455 E_impro  =         2.1992 E_vdwl   =       847.1567 
E_coul   =     26058.9698 E_long   =    -33902.1875 Press    =       351.3746 
---------------- Step     3850 ----- CPU =     38.3803 (sec) ----------------
TotEng   =     -4375.8720 KinEng   =      1638.8940 Temp     =       274.4957 
PotEng   =     -6014.7660 E_bond   =       634.0957 E_angle  =       348.7528 
E_dihed  =        19.2149 E_impro  =         1.1387 E_vdwl   =       868.0884 
E_coul   =     26018.0385 E_long   =    -33904.0951 Press    =     -2694.9278 
---------------- Step     3900 ----- CPU =     38.8584 (sec) ----------------
TotEng   =     -4352.2890 KinEng   =      1633.8882 Temp     =       273.6573 
PotEng   =     -5986.1772 E_bond   =       584.2802 E_angle  =       370.7667 
E_dihed  =        21.1548 E_impro  =         3.6555 E_vdwl   =       855.3357 
E_coul   =     26085.0365 E_long   =    -33906.4065 Press    =       758.2518 
---------------- Step     3950 ----- CPU =     39.2591 (sec) ----------------
TotEng   =     -4322.9137 KinEng   =      1640.2375 Temp     =       274.7208 
PotEng   =     -5963.1512 E_bond   =       616.5482 E_angle  =       376.3745 
E_dihed  =        18.7822 E_impro  =         1.6721 E_vdwl   =       849.0725 
E_coul   =     26077.4484 E_long   =    -33903.0491 Press    =     -1075.1073 
---------------- Step     4000 ----- CPU =     39.8577 (sec) ----------------
TotEng   =     -4309.8729 KinEng   =      1682.0228 Temp     =       281.7193 
PotEng   =     -5991.8958 E_bond   =       614.6786 E_angle  =       395.8291 
E_dihed  =        23.6155 E_impro  =         2.5538 E_vdwl   =       747.6822 
E_coul   =     26133.6385 E_long   =    -33909.8933 Press    =     -2242.5299 
---------------- Step     4050 ----- CPU =     40.2432 (sec) ----------------
TotEng   =     -4314.6190 KinEng   =      1648.2760 Temp     =       276.0671 
PotEng   =     -5962.8951 E_bond   =       624.0731 E_angle  =       389.2766 
E_dihed  =        23.1143 E_impro  =         3.6869 E_vdwl   =       846.5159 
E_coul   =     26053.9036 E_long   =    -33903.4655 Press    =     -1283.7028 
---------------- Step     4100 ----- CPU =     40.7653 (sec) ----------------
TotEng   =     -4345.3739 KinEng   =      1626.7081 Temp     =       272.4547 
PotEng   =     -5972.0820 E_bond   =       656.5941 E_angle  =       364.9119 
E_dihed  =        18.9711 E_impro  =         4.6771 E_vdwl   =       782.0855 
E_coul   =     26104.4512 E_long   =    -33903.7729 Press    =     -3188.3097 
---------------- Step     4150 ----- CPU =     41.2047 (sec) ----------------
TotEng   =     -4374.5353 KinEng   =      1607.4884 Temp     =       269.2357 
PotEng   =     -5982.0236 E_bond   =       582.2124 E_angle  =       344.4125 
E_dihed  =        19.0535 E_impro  =         2.9502 E_vdwl   =       828.6258 
E_coul   =     26144.4490 E_long   =    -33903.7270 Press    =       673.1681 
---------------- Step     4200 ----- CPU =     41.7366 (sec) ----------------
TotEng   =     -4375.0146 KinEng   =      1624.0542 Temp     =       272.0102 
PotEng   =     -5999.0687 E_bond   =       674.7707 E_angle  =       364.0358 
E_dihed  =        19.9511 E_impro  =         2.3520 E_vdwl   =       792.2220 
E_coul   =     26048.0524 E_long   =    -33900.4528 Press    =     -3565.8212 
---------------- Step     4250 ----- CPU =     42.1659 (sec) ----------------
TotEng   =     -4359.8695 KinEng   =      1603.0727 Temp     =       268.4961 
PotEng   =     -5962.9422 E_bond   =       618.7189 E_angle  =       382.8320 
E_dihed  =        17.0976 E_impro  =         2.4348 E_vdwl   =       801.3934 
E_coul   =     26118.4835 E_long   =    -33903.9023 Press    =      -962.7893 
---------------- Step     4300 ----- CPU =     42.5897 (sec) ----------------
TotEng   =     -4332.8865 KinEng   =      1617.0800 Temp     =       270.8421 
PotEng   =     -5949.9665 E_bond   =       653.5525 E_angle  =       363.6648 
E_dihed  =        18.7586 E_impro  =         1.2571 E_vdwl   =       789.9060 
E_coul   =     26126.9549 E_long   =    -33904.0604 Press    =     -2872.2662 
---------------- Step     4350 ----- CPU =     43.1370 (sec) ----------------
TotEng   =     -4309.0293 KinEng   =      1697.9321 Temp     =       284.3839 
PotEng   =     -6006.9614 E_bond   =       638.0384 E_angle  =       370.0029 
E_dihed  =        18.7409 E_impro  =         4.5823 E_vdwl   =       809.6887 
E_coul   =     26059.5050 E_long   =    -33907.5196 Press    =     -1946.8540 
---------------- Step     4400 ----- CPU =     43.5968 (sec) ----------------
TotEng   =     -4342.4880 KinEng   =      1612.9455 Temp     =       270.1497 
PotEng   =     -5955.4335 E_bond   =       638.5305 E_angle  =       348.8073 
E_dihed  =        19.2993 E_impro  =         2.5707 E_vdwl   =       866.6241 
E_coul   =     26073.0804 E_long   =    -33904.3457 Press    =      -164.4258 
---------------- Step     4450 ----- CPU =     44.0462 (sec) ----------------
TotEng   =     -4364.2157 KinEng   =      1617.4037 Temp     =       270.8964 
PotEng   =     -5981.6194 E_bond   =       640.0117 E_angle  =       343.8443 
E_dihed  =        20.9517 E_impro  =         2.8492 E_vdwl   =       766.5831 
E_coul   =     26149.3314 E_long   =    -33905.1909 Press    =     -2257.4535 
---------------- Step     4500 ----- CPU =     44.4743 (sec) ----------------
TotEng   =     -4334.4743 KinEng   =      1657.1314 Temp     =       277.5503 
PotEng   =     -5991.6057 E_bond   =       646.6698 E_angle  =       381.3769 
E_dihed  =        18.3415 E_impro  =         1.7244 E_vdwl   =       879.5458 
E_coul   =     25985.9747 E_long   =    -33905.2388 Press    =      -510.7402 
---------------- Step     4550 ----- CPU =     44.9655 (sec) ----------------
TotEng   =     -4346.0101 KinEng   =      1683.3691 Temp     =       281.9448 
PotEng   =     -6029.3792 E_bond   =       621.8371 E_angle  =       379.2017 
E_dihed  =        17.8192 E_impro  =         3.4497 E_vdwl   =       818.5883 
E_coul   =     26038.6281 E_long   =    -33908.9033 Press    =     -1088.2138 
---------------- Step     4600 ----- CPU =     45.3560 (sec) ----------------
TotEng   =     -4408.5868 KinEng   =      1606.3221 Temp     =       269.0403 
PotEng   =     -6014.9090 E_bond   =       630.3796 E_angle  =       399.4371 
E_dihed  =        20.3780 E_impro  =         2.3545 E_vdwl   =       815.3088 
E_coul   =     26021.2606 E_long   =    -33904.0275 Press    =     -1929.2398 
---------------- Step     4650 ----- CPU =     45.9317 (sec) ----------------
TotEng   =     -4434.6812 KinEng   =      1628.8702 Temp     =       272.8169 
PotEng   =     -6063.5514 E_bond   =       618.1509 E_angle  =       394.2148 
E_dihed  =        20.7820 E_impro  =         2.4361 E_vdwl   =       817.5085 
E_coul   =     25987.2348 E_long   =    -33903.8784 Press    =     -1795.0721 
---------------- Step     4700 ----- CPU =     46.3650 (sec) ----------------
TotEng   =     -4421.7432 KinEng   =      1633.9662 Temp     =       273.6704 
PotEng   =     -6055.7094 E_bond   =       642.6434 E_angle  =       356.4903 
E_dihed  =        20.5086 E_impro  =         1.6442 E_vdwl   =       804.5329 
E_coul   =     26023.9306 E_long   =    -33905.4593 Press    =     -2804.8297 
---------------- Step     4750 ----- CPU =     46.8332 (sec) ----------------
TotEng   =     -4383.1717 KinEng   =      1663.6621 Temp     =       278.6441 
PotEng   =     -6046.8338 E_bond   =       640.2020 E_angle  =       387.7462 
E_dihed  =        20.8754 E_impro  =         3.5260 E_vdwl   =       804.3972 
E_coul   =     26002.5379 E_long   =    -33906.1183 Press    =      -803.4378 
---------------- Step     4800 ----- CPU =     47.2292 (sec) ----------------
TotEng   =     -4385.7421 KinEng   =      1626.1620 Temp     =       272.3633 
PotEng   =     -6011.9041 E_bond   =       606.1512 E_angle  =       353.8293 
E_dihed  =        17.9374 E_impro  =         2.3595 E_vdwl   =       847.0362 
E_coul   =     26065.2509 E_long   =    -33904.4685 Press    =      -121.6154 
---------------- Step     4850 ----- CPU =     47.8449 (sec) ----------------
TotEng   =     -4371.8187 KinEng   =      1689.8049 Temp     =       283.0227 
PotEng   =     -6061.6236 E_bond   =       682.2730 E_angle  =       383.7377 
E_dihed  =        18.1729 E_impro  =         2.6708 E_vdwl   =       852.3186 
E_coul   =     25904.4904 E_long   =    -33905.2871 Press    =     -2059.6912 
---------------- Step     4900 ----- CPU =     48.2634 (sec) ----------------
TotEng   =     -4408.9902 KinEng   =      1627.2983 Temp     =       272.5536 
PotEng   =     -6036.2885 E_bond   =       644.3294 E_angle  =       357.5249 
E_dihed  =        17.7552 E_impro  =         2.1803 E_vdwl   =       877.1924 
E_coul   =     25971.6324 E_long   =    -33906.9029 Press    =      -193.8368 
---------------- Step     4950 ----- CPU =     48.9459 (sec) ----------------
TotEng   =     -4434.2891 KinEng   =      1639.2777 Temp     =       274.5600 
PotEng   =     -6073.5668 E_bond   =       634.6699 E_angle  =       386.4178 
E_dihed  =        18.9230 E_impro  =         1.6074 E_vdwl   =       846.9088 
E_coul   =     25943.2162 E_long   =    -33905.3099 Press    =     -1790.2281 
---------------- Step     5000 ----- CPU =     49.4712 (sec) ----------------
TotEng   =     -4402.4473 KinEng   =      1681.9579 Temp     =       281.7085 
PotEng   =     -6084.4053 E_bond   =       618.1172 E_angle  =       375.0446 
E_dihed  =        16.0982 E_impro  =         1.8795 E_vdwl   =       903.8334 
E_coul   =     25909.8140 E_long   =    -33909.1922 Press    =       941.2493 
---------------- Step     5050 ----- CPU =     49.9404 (sec) ----------------
TotEng   =     -4376.3890 KinEng   =      1642.7414 Temp     =       275.1401 
PotEng   =     -6019.1304 E_bond   =       679.6786 E_angle  =       377.8774 
E_dihed  =        20.2658 E_impro  =         1.2044 E_vdwl   =       864.3744 
E_coul   =     25944.1515 E_long   =    -33906.6826 Press    =     -1975.8899 
---------------- Step     5100 ----- CPU =     50.3377 (sec) ----------------
TotEng   =     -4378.1483 KinEng   =      1607.0716 Temp     =       269.1659 
PotEng   =     -5985.2199 E_bond   =       640.6441 E_angle  =       372.0433 
E_dihed  =        17.1518 E_impro  =         1.9087 E_vdwl   =       797.3639 
E_coul   =     26092.9203 E_long   =    -33907.2519 Press    =     -1799.8756 
---------------- Step     5150 ----- CPU =     50.8699 (sec) ----------------
TotEng   =     -4340.8539 KinEng   =      1613.2455 Temp     =       270.1999 
PotEng   =     -5954.0993 E_bond   =       679.7586 E_angle  =       393.8388 
E_dihed  =        16.9234 E_impro  =         2.0886 E_vdwl   =       855.8473 
E_coul   =     26002.3772 E_long   =    -33904.9332 Press    =     -2319.0555 
---------------- Step     5200 ----- CPU =     51.2658 (sec) ----------------
TotEng   =     -4330.7863 KinEng   =      1661.8183 Temp     =       278.3353 
PotEng   =     -5992.6045 E_bond   =       634.1399 E_angle  =       402.9630 
E_dihed  =        17.4339 E_impro  =         1.5513 E_vdwl   =       826.7926 
E_coul   =     26027.5492 E_long   =    -33903.0345 Press    =      -475.7504 
---------------- Step     5250 ----- CPU =     51.8746 (sec) ----------------
TotEng   =     -4346.1055 KinEng   =      1671.5565 Temp     =       279.9663 
PotEng   =     -6017.6620 E_bond   =       664.5003 E_angle  =       421.4927 
E_dihed  =        20.4724 E_impro  =         1.8981 E_vdwl   =       868.4946 
E_coul   =     25911.1285 E_long   =    -33905.6486 Press    =     -1598.7828 
---------------- Step     5300 ----- CPU =     52.3060 (sec) ----------------
TotEng   =     -4389.8549 KinEng   =      1641.6975 Temp     =       274.9653 
PotEng   =     -6031.5524 E_bond   =       640.1521 E_angle  =       368.6755 
E_dihed  =        17.4050 E_impro  =         1.7082 E_vdwl   =       829.2471 
E_coul   =     26011.3255 E_long   =    -33900.0657 Press    =     -1443.5842 
---------------- Step     5350 ----- CPU =     52.8683 (sec) ----------------
TotEng   =     -4438.1376 KinEng   =      1592.7329 Temp     =       266.7643 
PotEng   =     -6030.8705 E_bond   =       629.1584 E_angle  =       385.7746 
E_dihed  =        20.9809 E_impro  =         3.5921 E_vdwl   =       789.9290 
E_coul   =     26043.2591 E_long   =    -33903.5645 Press    =     -1711.0409 
---------------- Step     5400 ----- CPU =     53.3309 (sec) ----------------
TotEng   =     -4435.5167 KinEng   =      1619.4270 Temp     =       271.2352 
PotEng   =     -6054.9437 E_bond   =       676.9138 E_angle  =       374.6660 
E_dihed  =        22.0099 E_impro  =         2.6648 E_vdwl   =       849.7786 
E_coul   =     25926.6293 E_long   =    -33907.6061 Press    =     -2148.9537 
---------------- Step     5450 ----- CPU =     53.9654 (sec) ----------------
TotEng   =     -4403.1906 KinEng   =      1656.9988 Temp     =       277.5281 
PotEng   =     -6060.1895 E_bond   =       608.3848 E_angle  =       403.7018 
E_dihed  =        21.3586 E_impro  =         5.4018 E_vdwl   =       860.5952 
E_coul   =     25945.9115 E_long   =    -33905.5432 Press    =      1152.6812 
---------------- Step     5500 ----- CPU =     54.3748 (sec) ----------------
TotEng   =     -4380.0011 KinEng   =      1683.6491 Temp     =       281.9917 
PotEng   =     -6063.6502 E_bond   =       695.7144 E_angle  =       402.4594 
E_dihed  =        21.8668 E_impro  =         1.0476 E_vdwl   =       922.4817 
E_coul   =     25795.9469 E_long   =    -33903.1668 Press    =     -2130.4140 
---------------- Step     5550 ----- CPU =     54.9791 (sec) ----------------
TotEng   =     -4371.8941 KinEng   =      1620.0171 Temp     =       271.3341 
PotEng   =     -5991.9112 E_bond   =       642.8764 E_angle  =       412.0706 
E_dihed  =        17.5337 E_impro  =         2.5159 E_vdwl   =       872.0819 
E_coul   =     25961.2508 E_long   =    -33900.2405 Press    =       -41.8324 
---------------- Step     5600 ----- CPU =     55.4521 (sec) ----------------
TotEng   =     -4383.5487 KinEng   =      1632.2393 Temp     =       273.3812 
PotEng   =     -6015.7880 E_bond   =       671.2163 E_angle  =       409.8269 
E_dihed  =        20.5205 E_impro  =         0.8807 E_vdwl   =       801.9644 
E_coul   =     25986.3000 E_long   =    -33906.4970 Press    =     -2952.3234 
---------------- Step     5650 ----- CPU =     55.8986 (sec) ----------------
TotEng   =     -4367.7710 KinEng   =      1594.6603 Temp     =       267.0871 
PotEng   =     -5962.4313 E_bond   =       642.5081 E_angle  =       403.6282 
E_dihed  =        21.7045 E_impro  =         2.1993 E_vdwl   =       801.8576 
E_coul   =     26070.3482 E_long   =    -33904.6773 Press    =     -1444.8780 
---------------- Step     5700 ----- CPU =     56.2923 (sec) ----------------
TotEng   =     -4300.8234 KinEng   =      1681.9623 Temp     =       281.7092 
PotEng   =     -5982.7857 E_bond   =       629.8955 E_angle  =       362.3788 
E_dihed  =        22.3534 E_impro  =         2.0205 E_vdwl   =       800.7587 
E_coul   =     26104.9279 E_long   =    -33905.1205 Press    =      -938.4643 
---------------- Step     5750 ----- CPU =     56.8106 (sec) ----------------
TotEng   =     -4260.4803 KinEng   =      1689.0077 Temp     =       282.8892 
PotEng   =     -5949.4880 E_bond   =       729.9152 E_angle  =       396.5009 
E_dihed  =        23.5503 E_impro  =         2.4079 E_vdwl   =       806.5862 
E_coul   =     25997.3115 E_long   =    -33905.7601 Press    =     -3621.1021 
---------------- Step     5800 ----- CPU =     57.2039 (sec) ----------------
TotEng   =     -4304.5600 KinEng   =      1658.4829 Temp     =       277.7767 
PotEng   =     -5963.0429 E_bond   =       616.9611 E_angle  =       391.4770 
E_dihed  =        21.6694 E_impro  =         3.0659 E_vdwl   =       802.9302 
E_coul   =     26107.3874 E_long   =    -33906.5338 Press    =      1136.2688 
---------------- Step     5850 ----- CPU =     57.7928 (sec) ----------------
TotEng   =     -4357.6994 KinEng   =      1655.2229 Temp     =       277.2306 
PotEng   =     -6012.9223 E_bond   =       682.7967 E_angle  =       377.7165 
E_dihed  =        22.9806 E_impro  =         3.1913 E_vdwl   =       820.3873 
E_coul   =     25984.7725 E_long   =    -33904.7672 Press    =     -3188.8745 
---------------- Step     5900 ----- CPU =     58.3309 (sec) ----------------
TotEng   =     -4377.8049 KinEng   =      1611.4167 Temp     =       269.8936 
PotEng   =     -5989.2216 E_bond   =       654.7397 E_angle  =       398.3054 
E_dihed  =        19.3403 E_impro  =         2.9790 E_vdwl   =       872.3938 
E_coul   =     25966.1256 E_long   =    -33903.1053 Press    =       -72.5089 
---------------- Step     5950 ----- CPU =     58.8778 (sec) ----------------
TotEng   =     -4373.4379 KinEng   =      1631.6229 Temp     =       273.2779 
PotEng   =     -6005.0607 E_bond   =       711.1589 E_angle  =       403.6918 
E_dihed  =        20.4250 E_impro  =         5.2425 E_vdwl   =       896.1987 
E_coul   =     25862.4476 E_long   =    -33904.2252 Press    =     -2433.6063 
---------------- Step     6000 ----- CPU =     59.2840 (sec) ----------------
TotEng   =     -4380.0640 KinEng   =      1629.2738 Temp     =       272.8845 
PotEng   =     -6009.3378 E_bond   =       662.1186 E_angle  =       374.4276 
E_dihed  =        19.3709 E_impro  =         4.7507 E_vdwl   =       849.3084 
E_coul   =     25985.0151 E_long   =    -33904.3291 Press    =     -1152.8342 
---------------- Step     6050 ----- CPU =     59.8899 (sec) ----------------
TotEng   =     -4390.1953 KinEng   =      1637.8188 Temp     =       274.3157 
PotEng   =     -6028.0141 E_bond   =       661.5956 E_angle  =       367.8090 
E_dihed  =        18.0393 E_impro  =         1.6188 E_vdwl   =       897.8238 
E_coul   =     25928.2420 E_long   =    -33903.1427 Press    =       313.0634 
---------------- Step     6100 ----- CPU =     60.2742 (sec) ----------------
TotEng   =     -4381.3786 KinEng   =      1648.0490 Temp     =       276.0291 
PotEng   =     -6029.4276 E_bond   =       720.8127 E_angle  =       363.6470 
E_dihed  =        17.1821 E_impro  =         3.4609 E_vdwl   =       832.5854 
E_coul   =     25937.8367 E_long   =    -33904.9524 Press    =     -2713.2260 
---------------- Step     6150 ----- CPU =     60.8194 (sec) ----------------
TotEng   =     -4353.5071 KinEng   =      1630.4396 Temp     =       273.0797 
PotEng   =     -5983.9467 E_bond   =       665.0227 E_angle  =       439.8687 
E_dihed  =        19.7642 E_impro  =         3.7570 E_vdwl   =       780.2629 
E_coul   =     26014.5452 E_long   =    -33907.1674 Press    =      -481.1060 
---------------- Step     6200 ----- CPU =     61.2124 (sec) ----------------
TotEng   =     -4338.7987 KinEng   =      1703.8996 Temp     =       285.3834 
PotEng   =     -6042.6983 E_bond   =       698.4353 E_angle  =       408.4330 
E_dihed  =        16.0210 E_impro  =         2.9364 E_vdwl   =       814.5928 
E_coul   =     25923.1920 E_long   =    -33906.3090 Press    =     -3321.8465 
---------------- Step     6250 ----- CPU =     61.7260 (sec) ----------------
TotEng   =     -4370.5907 KinEng   =      1661.1029 Temp     =       278.2155 
PotEng   =     -6031.6936 E_bond   =       593.6596 E_angle  =       384.5266 
E_dihed  =        20.7023 E_impro  =         2.2783 E_vdwl   =       821.0271 
E_coul   =     26047.7050 E_long   =    -33901.5924 Press    =       806.8326 
---------------- Step     6300 ----- CPU =     62.1289 (sec) ----------------
TotEng   =     -4405.0546 KinEng   =      1607.1219 Temp     =       269.1743 
PotEng   =     -6012.1765 E_bond   =       686.7317 E_angle  =       400.7873 
E_dihed  =        21.7486 E_impro  =         3.4006 E_vdwl   =       855.0153 
E_coul   =     25925.3336 E_long   =    -33905.1937 Press    =     -3347.8744 
---------------- Step     6350 ----- CPU =     62.7630 (sec) ----------------
TotEng   =     -4433.0533 KinEng   =      1611.1537 Temp     =       269.8496 
PotEng   =     -6044.2071 E_bond   =       641.5692 E_angle  =       389.4091 
E_dihed  =        21.0903 E_impro  =         2.3007 E_vdwl   =       836.5621 
E_coul   =     25971.1347 E_long   =    -33906.2732 Press    =     -1806.4981 
---------------- Step     6400 ----- CPU =     63.1936 (sec) ----------------
TotEng   =     -4408.2203 KinEng   =      1661.8249 Temp     =       278.3364 
PotEng   =     -6070.0452 E_bond   =       659.0487 E_angle  =       371.6585 
E_dihed  =        19.5062 E_impro  =         0.5411 E_vdwl   =       867.8478 
E_coul   =     25915.7656 E_long   =    -33904.4130 Press    =       135.2156 
---------------- Step     6450 ----- CPU =     63.8195 (sec) ----------------
TotEng   =     -4408.7394 KinEng   =      1620.1884 Temp     =       271.3628 
PotEng   =     -6028.9278 E_bond   =       676.5102 E_angle  =       371.7402 
E_dihed  =        15.5401 E_impro  =         1.6905 E_vdwl   =       899.5778 
E_coul   =     25910.3334 E_long   =    -33904.3200 Press    =     -2467.3598 
---------------- Step     6500 ----- CPU =     64.2203 (sec) ----------------
TotEng   =     -4378.7455 KinEng   =      1596.8771 Temp     =       267.4584 
PotEng   =     -5975.6226 E_bond   =       650.7738 E_angle  =       409.6662 
E_dihed  =        22.5647 E_impro  =         1.3480 E_vdwl   =       855.5976 
E_coul   =     25989.4884 E_long   =    -33905.0613 Press    =       393.5263 
---------------- Step     6550 ----- CPU =     64.8035 (sec) ----------------
TotEng   =     -4380.2075 KinEng   =      1706.9861 Temp     =       285.9004 
PotEng   =     -6087.1936 E_bond   =       701.3472 E_angle  =       332.9368 
E_dihed  =        22.1582 E_impro  =         2.5573 E_vdwl   =       814.2301 
E_coul   =     25947.3695 E_long   =    -33907.7926 Press    =     -3909.9864 
---------------- Step     6600 ----- CPU =     65.2046 (sec) ----------------
TotEng   =     -4413.5996 KinEng   =      1624.9862 Temp     =       272.1664 
PotEng   =     -6038.5858 E_bond   =       639.1775 E_angle  =       404.5556 
E_dihed  =        21.4702 E_impro  =         1.5267 E_vdwl   =       809.7925 
E_coul   =     25990.1973 E_long   =    -33905.3056 Press    =       377.5409 
---------------- Step     6650 ----- CPU =     65.7305 (sec) ----------------
TotEng   =     -4408.4970 KinEng   =      1641.3452 Temp     =       274.9063 
PotEng   =     -6049.8422 E_bond   =       687.5605 E_angle  =       362.1658 
E_dihed  =        20.5363 E_impro  =         2.6038 E_vdwl   =       842.0845 
E_coul   =     25937.5495 E_long   =    -33902.3427 Press    =     -2041.1038 
---------------- Step     6700 ----- CPU =     66.1774 (sec) ----------------
TotEng   =     -4384.7532 KinEng   =      1633.8298 Temp     =       273.6476 
PotEng   =     -6018.5830 E_bond   =       658.9538 E_angle  =       395.2179 
E_dihed  =        19.7303 E_impro  =         1.7817 E_vdwl   =       850.7001 
E_coul   =     25958.2661 E_long   =    -33903.2329 Press    =     -1839.1311 
---------------- Step     6750 ----- CPU =     66.8075 (sec) ----------------
TotEng   =     -4341.8185 KinEng   =      1659.3608 Temp     =       277.9237 
PotEng   =     -6001.1793 E_bond   =       678.6877 E_angle  =       384.5668 
E_dihed  =        20.5144 E_impro  =         1.5514 E_vdwl   =       738.3650 
E_coul   =     26080.6181 E_long   =    -33905.4828 Press    =     -3369.5075 
---------------- Step     6800 ----- CPU =     67.2192 (sec) ----------------
TotEng   =     -4332.1875 KinEng   =      1657.8187 Temp     =       277.6654 
PotEng   =     -5990.0062 E_bond   =       681.5324 E_angle  =       420.9357 
E_dihed  =        17.7679 E_impro  =         2.2446 E_vdwl   =       846.6320 
E_coul   =     25944.4155 E_long   =    -33903.5343 Press    =     -2280.7144 
---------------- Step     6850 ----- CPU =     67.8233 (sec) ----------------
TotEng   =     -4367.7994 KinEng   =      1649.3164 Temp     =       276.2414 
PotEng   =     -6017.1158 E_bond   =       664.8430 E_angle  =       353.0035 
E_dihed  =        22.6752 E_impro  =         1.8276 E_vdwl   =       862.4131 
E_coul   =     25984.7301 E_long   =    -33906.6083 Press    =      -492.8189 
---------------- Step     6900 ----- CPU =     68.2350 (sec) ----------------
TotEng   =     -4401.2513 KinEng   =      1634.7845 Temp     =       273.8074 
PotEng   =     -6036.0358 E_bond   =       684.9606 E_angle  =       409.9862 
E_dihed  =        19.5464 E_impro  =         2.2828 E_vdwl   =       864.5193 
E_coul   =     25888.2404 E_long   =    -33905.5714 Press    =      -924.4117 
---------------- Step     6950 ----- CPU =     69.0537 (sec) ----------------
TotEng   =     -4395.7515 KinEng   =      1663.7455 Temp     =       278.6581 
PotEng   =     -6059.4970 E_bond   =       666.2491 E_angle  =       348.7606 
E_dihed  =        19.7712 E_impro  =         2.2811 E_vdwl   =       815.3875 
E_coul   =     25994.2574 E_long   =    -33906.2038 Press    =     -1603.8427 
---------------- Step     7000 ----- CPU =     69.4776 (sec) ----------------
TotEng   =     -4361.0082 KinEng   =      1629.5409 Temp     =       272.9292 
PotEng   =     -5990.5491 E_bond   =       691.9521 E_angle  =       403.6883 
E_dihed  =        18.5244 E_impro  =         1.2480 E_vdwl   =       845.2444 
E_coul   =     25951.1760 E_long   =    -33902.3823 Press    =     -1203.1481 
---------------- Step     7050 ----- CPU =     69.9768 (sec) ----------------
TotEng   =     -4338.3785 KinEng   =      1636.3535 Temp     =       274.0702 
PotEng   =     -5974.7320 E_bond   =       714.8159 E_angle  =       397.8067 
E_dihed  =        15.2367 E_impro  =         2.7382 E_vdwl   =       840.0835 
E_coul   =     25955.0508 E_long   =    -33900.4638 Press    =     -2262.0332 
---------------- Step     7100 ----- CPU =     70.3810 (sec) ----------------
TotEng   =     -4355.9317 KinEng   =      1634.7946 Temp     =       273.8091 
PotEng   =     -5990.7263 E_bond   =       691.1249 E_angle  =       382.9088 
E_dihed  =        22.0241 E_impro  =         1.7656 E_vdwl   =       788.8434 
E_coul   =     26024.5933 E_long   =    -33901.9864 Press    =     -1954.8503 
---------------- Step     7150 ----- CPU =     70.9548 (sec) ----------------
TotEng   =     -4387.3872 KinEng   =      1654.8664 Temp     =       277.1709 
PotEng   =     -6042.2536 E_bond   =       669.6948 E_angle  =       373.7007 
E_dihed  =        20.0745 E_impro  =         3.3217 E_vdwl   =       856.6024 
E_coul   =     25938.8032 E_long   =    -33904.4508 Press    =      -352.6569 
---------------- Step     7200 ----- CPU =     71.3503 (sec) ----------------
TotEng   =     -4414.3966 KinEng   =      1600.9616 Temp     =       268.1425 
PotEng   =     -6015.3582 E_bond   =       691.0779 E_angle  =       385.9467 
E_dihed  =        21.0481 E_impro  =         3.8972 E_vdwl   =       818.6610 
E_coul   =     25965.6280 E_long   =    -33901.6172 Press    =     -2184.7148 
---------------- Step     7250 ----- CPU =     71.8353 (sec) ----------------
TotEng   =     -4412.4155 KinEng   =      1641.7481 Temp     =       274.9738 
PotEng   =     -6054.1636 E_bond   =       666.7397 E_angle  =       420.4249 
E_dihed  =        18.2549 E_impro  =         1.8048 E_vdwl   =       873.3298 
E_coul   =     25869.5245 E_long   =    -33904.2422 Press    =     -1335.9259 
---------------- Step     7300 ----- CPU =     72.2531 (sec) ----------------
TotEng   =     -4396.4086 KinEng   =      1647.2687 Temp     =       275.8984 
PotEng   =     -6043.6772 E_bond   =       699.5827 E_angle  =       389.2912 
E_dihed  =        17.5033 E_impro  =         1.9050 E_vdwl   =       886.0806 
E_coul   =     25866.4906 E_long   =    -33904.5307 Press    =      -966.7321 
---------------- Step     7350 ----- CPU =     72.8386 (sec) ----------------
TotEng   =     -4409.9796 KinEng   =      1631.2566 Temp     =       273.2166 
PotEng   =     -6041.2362 E_bond   =       662.2140 E_angle  =       392.8477 
E_dihed  =        18.9018 E_impro  =         1.7750 E_vdwl   =       889.9465 
E_coul   =     25898.9182 E_long   =    -33905.8394 Press    =      -627.0925 
---------------- Step     7400 ----- CPU =     73.2410 (sec) ----------------
TotEng   =     -4403.5236 KinEng   =      1631.9695 Temp     =       273.3360 
PotEng   =     -6035.4931 E_bond   =       710.4748 E_angle  =       396.2469 
E_dihed  =        16.6344 E_impro  =         3.5634 E_vdwl   =       836.1219 
E_coul   =     25907.0559 E_long   =    -33905.5904 Press    =     -2091.7345 
---------------- Step     7450 ----- CPU =     73.8886 (sec) ----------------
TotEng   =     -4411.8099 KinEng   =      1669.2405 Temp     =       279.5784 
PotEng   =     -6081.0504 E_bond   =       681.6701 E_angle  =       400.4161 
E_dihed  =        18.1118 E_impro  =         3.6228 E_vdwl   =       829.7909 
E_coul   =     25887.6060 E_long   =    -33902.2682 Press    =     -1568.2356 
---------------- Step     7500 ----- CPU =     74.2924 (sec) ----------------
TotEng   =     -4442.0244 KinEng   =      1662.5398 Temp     =       278.4561 
PotEng   =     -6104.5642 E_bond   =       672.5689 E_angle  =       397.5483 
E_dihed  =        20.5512 E_impro  =         3.2604 E_vdwl   =       891.2610 
E_coul   =     25816.8883 E_long   =    -33906.6423 Press    =      -936.3565 
---------------- Step     7550 ----- CPU =     74.9421 (sec) ----------------
TotEng   =     -4493.9310 KinEng   =      1608.1205 Temp     =       269.3415 
PotEng   =     -6102.0515 E_bond   =       662.3163 E_angle  =       400.5317 
E_dihed  =        17.4264 E_impro  =         2.8863 E_vdwl   =       909.8847 
E_coul   =     25810.6886 E_long   =    -33905.7856 Press    =     -1099.3915 
---------------- Step     7600 ----- CPU =     75.3789 (sec) ----------------
TotEng   =     -4497.7625 KinEng   =      1630.2370 Temp     =       273.0458 
PotEng   =     -6127.9996 E_bond   =       664.6703 E_angle  =       368.4309 
E_dihed  =        16.8321 E_impro  =         1.1585 E_vdwl   =       825.3205 
E_coul   =     25898.8342 E_long   =    -33903.2460 Press    =     -1767.9633 
---------------- Step     7650 ----- CPU =     75.9230 (sec) ----------------
TotEng   =     -4447.4697 KinEng   =      1644.8683 Temp     =       275.4964 
PotEng   =     -6092.3380 E_bond   =       656.8818 E_angle  =       376.3456 
E_dihed  =        19.3916 E_impro  =         2.3486 E_vdwl   =       828.4501 
E_coul   =     25932.8726 E_long   =    -33908.6282 Press    =     -1416.2517 
---------------- Step     7700 ----- CPU =     76.3357 (sec) ----------------
TotEng   =     -4383.9712 KinEng   =      1653.7268 Temp     =       276.9801 
PotEng   =     -6037.6980 E_bond   =       671.9614 E_angle  =       406.5479 
E_dihed  =        23.4107 E_impro  =         2.6189 E_vdwl   =       895.6023 
E_coul   =     25867.0613 E_long   =    -33904.9006 Press    =      -247.3534 
---------------- Step     7750 ----- CPU =     76.9633 (sec) ----------------
TotEng   =     -4370.7741 KinEng   =      1642.0936 Temp     =       275.0316 
PotEng   =     -6012.8677 E_bond   =       699.6077 E_angle  =       420.2667 
E_dihed  =        22.8542 E_impro  =         2.4872 E_vdwl   =       874.1999 
E_coul   =     25871.8949 E_long   =    -33904.1784 Press    =     -1304.0908 
---------------- Step     7800 ----- CPU =     77.3806 (sec) ----------------
TotEng   =     -4398.0347 KinEng   =      1667.9905 Temp     =       279.3691 
PotEng   =     -6066.0252 E_bond   =       683.2472 E_angle  =       393.1060 
E_dihed  =        20.9365 E_impro  =         2.9474 E_vdwl   =       904.9975 
E_coul   =     25834.6552 E_long   =    -33905.9151 Press    =      -950.2620 
---------------- Step     7850 ----- CPU =     77.9730 (sec) ----------------
TotEng   =     -4470.9025 KinEng   =      1672.2256 Temp     =       280.0784 
PotEng   =     -6143.1281 E_bond   =       678.6525 E_angle  =       413.0957 
E_dihed  =        20.3635 E_impro  =         3.6347 E_vdwl   =       812.3701 
E_coul   =     25837.2505 E_long   =    -33908.4952 Press    =     -3138.5088 
---------------- Step     7900 ----- CPU =     78.4197 (sec) ----------------
TotEng   =     -4505.7300 KinEng   =      1588.8064 Temp     =       266.1067 
PotEng   =     -6094.5364 E_bond   =       688.4611 E_angle  =       390.4901 
E_dihed  =        17.8501 E_impro  =         2.7677 E_vdwl   =       818.2993 
E_coul   =     25892.4798 E_long   =    -33904.8845 Press    =     -2999.3094 
---------------- Step     7950 ----- CPU =     78.9715 (sec) ----------------
TotEng   =     -4440.3117 KinEng   =      1665.8769 Temp     =       279.0151 
PotEng   =     -6106.1886 E_bond   =       656.4574 E_angle  =       379.6843 
E_dihed  =        16.2152 E_impro  =         1.0272 E_vdwl   =       811.2213 
E_coul   =     25938.3873 E_long   =    -33909.1811 Press    =     -1202.3083 
---------------- Step     8000 ----- CPU =     79.6472 (sec) ----------------
TotEng   =     -4343.6113 KinEng   =      1687.5869 Temp     =       282.6512 
PotEng   =     -6031.1982 E_bond   =       704.3708 E_angle  =       383.1864 
E_dihed  =        22.9548 E_impro  =         2.2836 E_vdwl   =       792.8685 
E_coul   =     25967.6951 E_long   =    -33904.5573 Press    =     -2034.3425 
---------------- Step     8050 ----- CPU =     80.0998 (sec) ----------------
TotEng   =     -4308.4412 KinEng   =      1721.1604 Temp     =       288.2744 
PotEng   =     -6029.6016 E_bond   =       677.9025 E_angle  =       367.2348 
E_dihed  =        19.2860 E_impro  =         0.8582 E_vdwl   =       790.1009 
E_coul   =     26020.8884 E_long   =    -33905.8724 Press    =     -1060.6881 
---------------- Step     8100 ----- CPU =     80.5660 (sec) ----------------
TotEng   =     -4354.6709 KinEng   =      1674.6087 Temp     =       280.4775 
PotEng   =     -6029.2796 E_bond   =       680.4606 E_angle  =       397.6814 
E_dihed  =        17.1375 E_impro  =         1.4572 E_vdwl   =       859.8410 
E_coul   =     25920.0948 E_long   =    -33905.9521 Press    =     -1080.0515 
---------------- Step     8150 ----- CPU =     81.1385 (sec) ----------------
TotEng   =     -4461.2451 KinEng   =      1604.9681 Temp     =       268.8135 
PotEng   =     -6066.2132 E_bond   =       682.0432 E_angle  =       400.5715 
E_dihed  =        20.5458 E_impro  =         1.8135 E_vdwl   =       796.1832 
E_coul   =     25938.5289 E_long   =    -33905.8993 Press    =     -4061.6459 
---------------- Step     8200 ----- CPU =     81.7056 (sec) ----------------
TotEng   =     -4487.8446 KinEng   =      1534.7299 Temp     =       257.0495 
PotEng   =     -6022.5746 E_bond   =       690.5853 E_angle  =       387.7926 
E_dihed  =        24.1186 E_impro  =         2.8003 E_vdwl   =       899.3443 
E_coul   =     25878.9322 E_long   =    -33906.1479 Press    =      -972.8663 
---------------- Step     8250 ----- CPU =     82.1404 (sec) ----------------
TotEng   =     -4429.6192 KinEng   =      1647.4434 Temp     =       275.9277 
PotEng   =     -6077.0626 E_bond   =       711.4763 E_angle  =       438.1912 
E_dihed  =        20.8083 E_impro  =         1.6699 E_vdwl   =       886.0642 
E_coul   =     25770.9787 E_long   =    -33906.2511 Press    =     -2647.0598 
---------------- Step     8300 ----- CPU =     82.7517 (sec) ----------------
TotEng   =     -4366.9519 KinEng   =      1650.4896 Temp     =       276.4379 
PotEng   =     -6017.4415 E_bond   =       676.1984 E_angle  =       356.8374 
E_dihed  =        23.2163 E_impro  =         3.1521 E_vdwl   =       829.1152 
E_coul   =     25999.9235 E_long   =    -33905.8845 Press    =      -286.7415 
---------------- Step     8350 ----- CPU =     83.1891 (sec) ----------------
TotEng   =     -4337.5029 KinEng   =      1678.8726 Temp     =       281.1917 
PotEng   =     -6016.3756 E_bond   =       689.3185 E_angle  =       426.9978 
E_dihed  =        23.8747 E_impro  =         3.9519 E_vdwl   =       820.4353 
E_coul   =     25924.1929 E_long   =    -33905.1467 Press    =     -1799.1251 
---------------- Step     8400 ----- CPU =     83.8191 (sec) ----------------
TotEng   =     -4356.9428 KinEng   =      1624.9574 Temp     =       272.1615 
PotEng   =     -5981.9002 E_bond   =       689.2726 E_angle  =       384.5153 
E_dihed  =        18.8169 E_impro  =         1.4703 E_vdwl   =       798.6032 
E_coul   =     26029.9812 E_long   =    -33904.5598 Press    =     -2883.2611 
---------------- Step     8450 ----- CPU =     84.3049 (sec) ----------------
TotEng   =     -4409.7561 KinEng   =      1636.2609 Temp     =       274.0547 
PotEng   =     -6046.0170 E_bond   =       667.9659 E_angle  =       402.9054 
E_dihed  =        16.4940 E_impro  =         1.1129 E_vdwl   =       810.7407 
E_coul   =     25961.0704 E_long   =    -33906.3065 Press    =     -1104.0232 
---------------- Step     8500 ----- CPU =     84.9971 (sec) ----------------
TotEng   =     -4473.3886 KinEng   =      1652.3512 Temp     =       276.7497 
PotEng   =     -6125.7398 E_bond   =       661.4707 E_angle  =       409.6906 
E_dihed  =        20.0553 E_impro  =         1.1205 E_vdwl   =       813.6417 
E_coul   =     25875.1862 E_long   =    -33906.9048 Press    =     -3235.0383 
---------------- Step     8550 ----- CPU =     85.5841 (sec) ----------------
TotEng   =     -4499.5343 KinEng   =      1594.1420 Temp     =       267.0003 
PotEng   =     -6093.6763 E_bond   =       623.4321 E_angle  =       378.6923 
E_dihed  =        23.0372 E_impro  =         4.1490 E_vdwl   =       840.6299 
E_coul   =     25941.2239 E_long   =    -33904.8408 Press    =      -165.1716 
---------------- Step     8600 ----- CPU =     86.1465 (sec) ----------------
TotEng   =     -4449.1974 KinEng   =      1621.5677 Temp     =       271.5938 
PotEng   =     -6070.7650 E_bond   =       676.3428 E_angle  =       414.4229 
E_dihed  =        23.4198 E_impro  =         3.2599 E_vdwl   =       905.7600 
E_coul   =     25810.5836 E_long   =    -33904.5540 Press    =     -1477.8946 
---------------- Step     8650 ----- CPU =     86.7829 (sec) ----------------
TotEng   =     -4417.5551 KinEng   =      1647.1079 Temp     =       275.8715 
PotEng   =     -6064.6629 E_bond   =       704.2940 E_angle  =       365.3880 
E_dihed  =        20.1246 E_impro  =         3.5080 E_vdwl   =       860.1164 
E_coul   =     25887.4893 E_long   =    -33905.5833 Press    =     -1035.7007 
---------------- Step     8700 ----- CPU =     87.2390 (sec) ----------------
TotEng   =     -4425.8282 KinEng   =      1635.7872 Temp     =       273.9754 
PotEng   =     -6061.6153 E_bond   =       671.1101 E_angle  =       403.3427 
E_dihed  =        15.0629 E_impro  =         1.0775 E_vdwl   =       841.8579 
E_coul   =     25912.1254 E_long   =    -33906.1919 Press    =      -641.8356 
---------------- Step     8750 ----- CPU =     87.8074 (sec) ----------------
TotEng   =     -4437.6379 KinEng   =      1653.9013 Temp     =       277.0093 
PotEng   =     -6091.5393 E_bond   =       718.7567 E_angle  =       396.2115 
E_dihed  =        15.3849 E_impro  =         1.6222 E_vdwl   =       917.4559 
E_coul   =     25762.0745 E_long   =    -33903.0449 Press    =     -3113.6262 
---------------- Step     8800 ----- CPU =     88.2120 (sec) ----------------
TotEng   =     -4454.4694 KinEng   =      1687.8197 Temp     =       282.6902 
PotEng   =     -6142.2891 E_bond   =       645.1492 E_angle  =       402.6039 
E_dihed  =        18.4611 E_impro  =         1.1366 E_vdwl   =       914.9398 
E_coul   =     25779.8390 E_long   =    -33904.4189 Press    =       210.4022 
---------------- Step     8850 ----- CPU =     88.8333 (sec) ----------------
TotEng   =     -4448.9046 KinEng   =      1593.0938 Temp     =       266.8247 
PotEng   =     -6041.9985 E_bond   =       680.7295 E_angle  =       421.9727 
E_dihed  =        21.8460 E_impro  =         1.6362 E_vdwl   =       828.3785 
E_coul   =     25904.9570 E_long   =    -33901.5183 Press    =     -1847.3792 
---------------- Step     8900 ----- CPU =     89.2658 (sec) ----------------
TotEng   =     -4412.7375 KinEng   =      1628.4975 Temp     =       272.7544 
PotEng   =     -6041.2350 E_bond   =       677.1544 E_angle  =       390.0178 
E_dihed  =        22.2313 E_impro  =         1.8993 E_vdwl   =       905.5817 
E_coul   =     25865.4108 E_long   =    -33903.5303 Press    =     -1041.7165 
---------------- Step     8950 ----- CPU =     89.8388 (sec) ----------------
TotEng   =     -4394.9750 KinEng   =      1653.7456 Temp     =       276.9832 
PotEng   =     -6048.7207 E_bond   =       656.9403 E_angle  =       401.0504 
E_dihed  =        18.8698 E_impro  =         1.9446 E_vdwl   =       914.0374 
E_coul   =     25865.3576 E_long   =    -33906.9208 Press    =      -251.3677 
---------------- Step     9000 ----- CPU =     90.2319 (sec) ----------------
TotEng   =     -4432.3004 KinEng   =      1677.0467 Temp     =       280.8859 
PotEng   =     -6109.3470 E_bond   =       691.6876 E_angle  =       391.1786 
E_dihed  =        21.8881 E_impro  =         4.2329 E_vdwl   =       889.7344 
E_coul   =     25797.9760 E_long   =    -33906.0447 Press    =     -2572.1578 
---------------- Step     9050 ----- CPU =     90.9194 (sec) ----------------
TotEng   =     -4452.7749 KinEng   =      1603.6681 Temp     =       268.5958 
PotEng   =     -6056.4429 E_bond   =       621.2003 E_angle  =       394.9906 
E_dihed  =        19.3505 E_impro  =         1.9160 E_vdwl   =       858.3904 
E_coul   =     25956.3291 E_long   =    -33908.6199 Press    =      2070.8754 
---------------- Step     9100 ----- CPU =     91.3139 (sec) ----------------
TotEng   =     -4459.3870 KinEng   =      1628.0085 Temp     =       272.6725 
PotEng   =     -6087.3955 E_bond   =       720.1080 E_angle  =       385.6634 
E_dihed  =        15.8772 E_impro  =         1.3021 E_vdwl   =       904.7582 
E_coul   =     25791.0763 E_long   =    -33906.1808 Press    =     -3222.7120 
---------------- Step     9150 ----- CPU =     91.8620 (sec) ----------------
TotEng   =     -4418.7143 KinEng   =      1642.0602 Temp     =       275.0260 
PotEng   =     -6060.7744 E_bond   =       692.2106 E_angle  =       396.4909 
E_dihed  =        19.5957 E_impro  =         1.7779 E_vdwl   =       846.9607 
E_coul   =     25889.3416 E_long   =    -33907.1520 Press    =     -1079.1673 
---------------- Step     9200 ----- CPU =     92.3140 (sec) ----------------
TotEng   =     -4383.8795 KinEng   =      1636.7911 Temp     =       274.1435 
PotEng   =     -6020.6706 E_bond   =       686.6482 E_angle  =       395.6496 
E_dihed  =        20.3574 E_impro  =         0.9075 E_vdwl   =       862.1876 
E_coul   =     25918.7352 E_long   =    -33905.1562 Press    =       -41.3542 
---------------- Step     9250 ----- CPU =     92.9450 (sec) ----------------
TotEng   =     -4351.5883 KinEng   =      1654.6012 Temp     =       277.1265 
PotEng   =     -6006.1895 E_bond   =       715.8429 E_angle  =       387.7642 
E_dihed  =        25.9029 E_impro  =         2.0096 E_vdwl   =       872.4959 
E_coul   =     25896.8806 E_long   =    -33907.0854 Press    =     -2152.8879 
---------------- Step     9300 ----- CPU =     93.3400 (sec) ----------------
TotEng   =     -4352.0222 KinEng   =      1693.3489 Temp     =       283.6163 
PotEng   =     -6045.3711 E_bond   =       669.3275 E_angle  =       413.6854 
E_dihed  =        19.2393 E_impro  =         1.8253 E_vdwl   =       857.4206 
E_coul   =     25898.2837 E_long   =    -33905.1528 Press    =      -585.9733 
---------------- Step     9350 ----- CPU =     93.9887 (sec) ----------------
TotEng   =     -4440.4921 KinEng   =      1639.8538 Temp     =       274.6565 
PotEng   =     -6080.3458 E_bond   =       699.8561 E_angle  =       392.2998 
E_dihed  =        17.3894 E_impro  =         4.9971 E_vdwl   =       910.0676 
E_coul   =     25800.7286 E_long   =    -33905.6845 Press    =      -896.1953 
---------------- Step     9400 ----- CPU =     94.3867 (sec) ----------------
TotEng   =     -4524.1399 KinEng   =      1577.6914 Temp     =       264.2450 
PotEng   =     -6101.8312 E_bond   =       653.8994 E_angle  =       423.3486 
E_dihed  =        20.4116 E_impro  =         2.0482 E_vdwl   =       868.5789 
E_coul   =     25829.4034 E_long   =    -33899.5215 Press    =     -1095.7881 
---------------- Step     9450 ----- CPU =     94.9593 (sec) ----------------
TotEng   =     -4493.3404 KinEng   =      1598.3531 Temp     =       267.7056 
PotEng   =     -6091.6935 E_bond   =       688.5109 E_angle  =       367.6879 
E_dihed  =        17.0074 E_impro  =         2.1429 E_vdwl   =       854.5585 
E_coul   =     25886.9163 E_long   =    -33908.5174 Press    =     -2265.8647 
---------------- Step     9500 ----- CPU =     95.3829 (sec) ----------------
TotEng   =     -4399.7909 KinEng   =      1655.1449 Temp     =       277.2176 
PotEng   =     -6054.9358 E_bond   =       675.5168 E_angle  =       419.8146 
E_dihed  =        17.6543 E_impro  =         1.8658 E_vdwl   =       886.1410 
E_coul   =     25848.5971 E_long   =    -33904.5253 Press    =      -699.3514 
---------------- Step     9550 ----- CPU =     95.8977 (sec) ----------------
TotEng   =     -4322.6886 KinEng   =      1716.1801 Temp     =       287.4403 
PotEng   =     -6038.8687 E_bond   =       689.3853 E_angle  =       395.1127 
E_dihed  =        18.8078 E_impro  =         2.6010 E_vdwl   =       795.2599 
E_coul   =     25965.9338 E_long   =    -33905.9693 Press    =     -1842.5934 
---------------- Step     9600 ----- CPU =     96.3000 (sec) ----------------
TotEng   =     -4332.1451 KinEng   =      1640.4506 Temp     =       274.7565 
PotEng   =     -5972.5957 E_bond   =       677.3958 E_angle  =       417.7885 
E_dihed  =        16.4843 E_impro  =         1.2192 E_vdwl   =       794.6889 
E_coul   =     26027.1943 E_long   =    -33907.3666 Press    =     -1419.1965 
---------------- Step     9650 ----- CPU =     96.8887 (sec) ----------------
TotEng   =     -4394.4790 KinEng   =      1639.4686 Temp     =       274.5920 
PotEng   =     -6033.9476 E_bond   =       692.2177 E_angle  =       430.2998 
E_dihed  =        18.5809 E_impro  =         1.2208 E_vdwl   =       870.0920 
E_coul   =     25856.4301 E_long   =    -33902.7891 Press    =     -2134.0281 
---------------- Step     9700 ----- CPU =     97.2825 (sec) ----------------
TotEng   =     -4388.6637 KinEng   =      1583.8445 Temp     =       265.2756 
PotEng   =     -5972.5081 E_bond   =       687.4010 E_angle  =       376.6375 
E_dihed  =        18.9265 E_impro  =         2.8465 E_vdwl   =       733.2062 
E_coul   =     26114.0192 E_long   =    -33905.5451 Press    =     -2209.1883 
---------------- Step     9750 ----- CPU =     97.7734 (sec) ----------------
TotEng   =     -4336.3398 KinEng   =      1642.6846 Temp     =       275.1306 
PotEng   =     -5979.0244 E_bond   =       751.3909 E_angle  =       439.7542 
E_dihed  =        18.6346 E_impro  =         1.5173 E_vdwl   =       840.9011 
[...]
PotEng   =     -6134.3762 E_bond   =       694.0349 E_angle  =       395.6383 
E_dihed  =        19.6861 E_impro  =         2.3137 E_vdwl   =       856.1999 
E_coul   =     25803.5300 E_long   =    -33905.7790 Press    =     -1193.7940 
---------------- Step    59000 ----- CPU =    610.5575 (sec) ----------------
TotEng   =     -4524.1231 KinEng   =      1598.1157 Temp     =       267.6658 
PotEng   =     -6122.2387 E_bond   =       692.4788 E_angle  =       423.8249 
E_dihed  =        20.1092 E_impro  =         2.7465 E_vdwl   =       837.2590 
E_coul   =     25805.3445 E_long   =    -33904.0017 Press    =     -3859.2238 
---------------- Step    59050 ----- CPU =    610.9605 (sec) ----------------
TotEng   =     -4445.3977 KinEng   =      1672.4819 Temp     =       280.1213 
PotEng   =     -6117.8796 E_bond   =       686.4738 E_angle  =       414.4950 
E_dihed  =        22.0765 E_impro  =         1.5993 E_vdwl   =       913.7570 
E_coul   =     25747.9706 E_long   =    -33904.2517 Press    =       151.2420 
---------------- Step    59100 ----- CPU =    611.3508 (sec) ----------------
TotEng   =     -4421.2757 KinEng   =      1676.5407 Temp     =       280.8011 
PotEng   =     -6097.8164 E_bond   =       705.4277 E_angle  =       396.2316 
E_dihed  =        17.5567 E_impro  =         3.3303 E_vdwl   =       848.6327 
E_coul   =     25837.6901 E_long   =    -33906.6856 Press    =     -1989.7858 
---------------- Step    59150 ----- CPU =    611.7351 (sec) ----------------
TotEng   =     -4431.4068 KinEng   =      1609.4692 Temp     =       269.5674 
PotEng   =     -6040.8761 E_bond   =       667.4506 E_angle  =       405.6403 
E_dihed  =        19.8528 E_impro  =         2.7139 E_vdwl   =       883.9267 
E_coul   =     25884.4610 E_long   =    -33904.9213 Press    =       751.1735 
---------------- Step    59200 ----- CPU =    612.1154 (sec) ----------------
TotEng   =     -4430.1635 KinEng   =      1646.6423 Temp     =       275.7935 
PotEng   =     -6076.8058 E_bond   =       738.1238 E_angle  =       395.7946 
E_dihed  =        28.2454 E_impro  =         2.8567 E_vdwl   =       875.7573 
E_coul   =     25788.2042 E_long   =    -33905.7878 Press    =     -3391.3743 
---------------- Step    59250 ----- CPU =    612.5256 (sec) ----------------
TotEng   =     -4428.9036 KinEng   =      1604.1498 Temp     =       268.6765 
PotEng   =     -6033.0534 E_bond   =       680.5674 E_angle  =       404.3933 
E_dihed  =        20.9170 E_impro  =         1.5780 E_vdwl   =       873.9531 
E_coul   =     25890.5732 E_long   =    -33905.0355 Press    =      -822.8624 
---------------- Step    59300 ----- CPU =    612.9161 (sec) ----------------
TotEng   =     -4372.9216 KinEng   =      1682.0116 Temp     =       281.7174 
PotEng   =     -6054.9332 E_bond   =       721.9016 E_angle  =       412.6486 
E_dihed  =        22.4931 E_impro  =         3.9846 E_vdwl   =       839.4525 
E_coul   =     25848.6977 E_long   =    -33904.1114 Press    =     -1819.1574 
---------------- Step    59350 ----- CPU =    613.3243 (sec) ----------------
TotEng   =     -4370.4532 KinEng   =      1661.3406 Temp     =       278.2553 
PotEng   =     -6031.7939 E_bond   =       723.0808 E_angle  =       445.3967 
E_dihed  =        25.1597 E_impro  =         1.1774 E_vdwl   =       881.6526 
E_coul   =     25799.4472 E_long   =    -33907.7082 Press    =     -2527.7191 
---------------- Step    59400 ----- CPU =    613.7145 (sec) ----------------
TotEng   =     -4417.0374 KinEng   =      1599.4448 Temp     =       267.8885 
PotEng   =     -6016.4822 E_bond   =       693.5231 E_angle  =       370.3950 
E_dihed  =        28.9594 E_impro  =         2.0284 E_vdwl   =       956.6724 
E_coul   =     25835.9667 E_long   =    -33904.0271 Press    =       640.0052 
---------------- Step    59450 ----- CPU =    614.1895 (sec) ----------------
TotEng   =     -4477.6227 KinEng   =      1650.3937 Temp     =       276.4218 
PotEng   =     -6128.0164 E_bond   =       694.2843 E_angle  =       412.4491 
E_dihed  =        24.1568 E_impro  =         2.3197 E_vdwl   =       790.7873 
E_coul   =     25852.1650 E_long   =    -33904.1787 Press    =     -4192.7475 
---------------- Step    59500 ----- CPU =    614.5917 (sec) ----------------
TotEng   =     -4493.7942 KinEng   =      1617.3745 Temp     =       270.8915 
PotEng   =     -6111.1688 E_bond   =       677.1416 E_angle  =       382.0012 
E_dihed  =        29.2083 E_impro  =         1.7728 E_vdwl   =       892.9221 
E_coul   =     25811.7706 E_long   =    -33905.9854 Press    =      -104.3474 
---------------- Step    59550 ----- CPU =    614.9838 (sec) ----------------
TotEng   =     -4464.4855 KinEng   =      1654.8526 Temp     =       277.1686 
PotEng   =     -6119.3382 E_bond   =       717.6699 E_angle  =       410.0781 
E_dihed  =        28.5905 E_impro  =         1.8299 E_vdwl   =       920.3316 
E_coul   =     25710.8127 E_long   =    -33908.6510 Press    =     -1410.2280 
---------------- Step    59600 ----- CPU =    615.4117 (sec) ----------------
TotEng   =     -4448.3761 KinEng   =      1678.3111 Temp     =       281.0977 
PotEng   =     -6126.6872 E_bond   =       695.4700 E_angle  =       443.4195 
E_dihed  =        22.7886 E_impro  =         3.6670 E_vdwl   =       872.4282 
E_coul   =     25738.7654 E_long   =    -33903.2259 Press    =     -1347.8224 
---------------- Step    59650 ----- CPU =    615.8151 (sec) ----------------
TotEng   =     -4473.7685 KinEng   =      1632.6423 Temp     =       273.4487 
PotEng   =     -6106.4108 E_bond   =       684.5223 E_angle  =       378.0520 
E_dihed  =        23.2550 E_impro  =         1.6272 E_vdwl   =       825.3693 
E_coul   =     25887.9271 E_long   =    -33907.1638 Press    =     -2597.5881 
---------------- Step    59700 ----- CPU =    616.2128 (sec) ----------------
TotEng   =     -4456.9105 KinEng   =      1637.1089 Temp     =       274.1968 
PotEng   =     -6094.0194 E_bond   =       691.9187 E_angle  =       432.6229 
E_dihed  =        20.8230 E_impro  =         3.3491 E_vdwl   =       890.3169 
E_coul   =     25768.5302 E_long   =    -33901.5802 Press    =     -1414.0498 
---------------- Step    59750 ----- CPU =    616.6142 (sec) ----------------
TotEng   =     -4452.0418 KinEng   =      1623.5851 Temp     =       271.9317 
PotEng   =     -6075.6269 E_bond   =       729.4657 E_angle  =       381.7779 
E_dihed  =        23.7241 E_impro  =         2.6929 E_vdwl   =       856.1137 
E_coul   =     25834.3516 E_long   =    -33903.7528 Press    =     -2890.7114 
---------------- Step    59800 ----- CPU =    617.0383 (sec) ----------------
TotEng   =     -4424.9410 KinEng   =      1657.9286 Temp     =       277.6838 
PotEng   =     -6082.8696 E_bond   =       719.2285 E_angle  =       405.6160 
E_dihed  =        20.9453 E_impro  =         3.5796 E_vdwl   =       847.1386 
E_coul   =     25824.2675 E_long   =    -33903.6451 Press    =     -2418.3423 
---------------- Step    59850 ----- CPU =    617.4298 (sec) ----------------
TotEng   =     -4401.3546 KinEng   =      1621.7526 Temp     =       271.6248 
PotEng   =     -6023.1072 E_bond   =       713.1621 E_angle  =       415.1641 
E_dihed  =        18.8833 E_impro  =         3.2014 E_vdwl   =       877.7190 
E_coul   =     25853.5717 E_long   =    -33904.8089 Press    =     -1304.4547 
---------------- Step    59900 ----- CPU =    617.8288 (sec) ----------------
TotEng   =     -4390.3875 KinEng   =      1656.4067 Temp     =       277.4289 
PotEng   =     -6046.7942 E_bond   =       705.9873 E_angle  =       391.4170 
E_dihed  =        25.5531 E_impro  =         2.6738 E_vdwl   =       827.3255 
E_coul   =     25905.2448 E_long   =    -33904.9957 Press    =     -1783.1773 
---------------- Step    59950 ----- CPU =    618.5400 (sec) ----------------
TotEng   =     -4381.3779 KinEng   =      1655.5643 Temp     =       277.2878 
PotEng   =     -6036.9422 E_bond   =       745.2324 E_angle  =       395.4081 
E_dihed  =        24.1846 E_impro  =         3.6753 E_vdwl   =       845.8772 
E_coul   =     25852.5135 E_long   =    -33903.8334 Press    =     -1818.1055 
---------------- Step    60000 ----- CPU =    618.9378 (sec) ----------------
TotEng   =     -4427.4056 KinEng   =      1664.4385 Temp     =       278.7741 
PotEng   =     -6091.8441 E_bond   =       726.2091 E_angle  =       393.3740 
E_dihed  =        21.1431 E_impro  =         2.1892 E_vdwl   =       892.3292 
E_coul   =     25775.2587 E_long   =    -33902.3474 Press    =     -2511.2437 
---------------- Step    60050 ----- CPU =    619.3299 (sec) ----------------
TotEng   =     -4473.3708 KinEng   =      1586.8617 Temp     =       265.7809 
PotEng   =     -6060.2325 E_bond   =       689.2684 E_angle  =       412.5486 
E_dihed  =        19.9781 E_impro  =         2.4889 E_vdwl   =       884.5265 
E_coul   =     25836.7348 E_long   =    -33905.7777 Press    =      -327.5157 
---------------- Step    60100 ----- CPU =    619.7238 (sec) ----------------
TotEng   =     -4467.3015 KinEng   =      1587.1393 Temp     =       265.8274 
PotEng   =     -6054.4408 E_bond   =       730.4098 E_angle  =       408.5083 
E_dihed  =        19.0719 E_impro  =         2.4498 E_vdwl   =       878.2808 
E_coul   =     25816.6559 E_long   =    -33909.8173 Press    =     -1791.8109 
---------------- Step    60150 ----- CPU =    620.1371 (sec) ----------------
TotEng   =     -4451.5231 KinEng   =      1640.3986 Temp     =       274.7477 
PotEng   =     -6091.9217 E_bond   =       725.7104 E_angle  =       396.3885 
E_dihed  =        19.9896 E_impro  =         1.9108 E_vdwl   =       861.6199 
E_coul   =     25806.0064 E_long   =    -33903.5472 Press    =     -2218.0781 
---------------- Step    60200 ----- CPU =    620.5362 (sec) ----------------
TotEng   =     -4437.0740 KinEng   =      1679.9395 Temp     =       281.3704 
PotEng   =     -6117.0135 E_bond   =       658.9845 E_angle  =       375.8302 
E_dihed  =        19.1912 E_impro  =         2.4583 E_vdwl   =       843.4976 
E_coul   =     25888.6567 E_long   =    -33905.6320 Press    =     -1546.9631 
---------------- Step    60250 ----- CPU =    620.9703 (sec) ----------------
TotEng   =     -4372.8961 KinEng   =      1654.2615 Temp     =       277.0696 
PotEng   =     -6027.1577 E_bond   =       755.9016 E_angle  =       366.5272 
E_dihed  =        18.2074 E_impro  =         1.6436 E_vdwl   =       878.8949 
E_coul   =     25858.2051 E_long   =    -33906.5375 Press    =     -1695.5427 
---------------- Step    60300 ----- CPU =    621.3651 (sec) ----------------
TotEng   =     -4396.2626 KinEng   =      1678.4613 Temp     =       281.1228 
PotEng   =     -6074.7239 E_bond   =       693.0800 E_angle  =       398.0100 
E_dihed  =        16.7640 E_impro  =         1.3652 E_vdwl   =       853.5189 
E_coul   =     25872.1410 E_long   =    -33909.6030 Press    =      -440.1044 
---------------- Step    60350 ----- CPU =    621.7818 (sec) ----------------
TotEng   =     -4484.1906 KinEng   =      1615.8080 Temp     =       270.6291 
PotEng   =     -6099.9985 E_bond   =       725.2940 E_angle  =       392.5145 
E_dihed  =        17.7817 E_impro  =         2.8262 E_vdwl   =       834.4406 
E_coul   =     25832.5855 E_long   =    -33905.4411 Press    =     -3227.8942 
---------------- Step    60400 ----- CPU =    622.1715 (sec) ----------------
TotEng   =     -4523.8409 KinEng   =      1582.3391 Temp     =       265.0235 
PotEng   =     -6106.1800 E_bond   =       673.0332 E_angle  =       399.3738 
E_dihed  =        18.3357 E_impro  =         1.8537 E_vdwl   =       888.1998 
E_coul   =     25819.7945 E_long   =    -33906.7707 Press    =        15.5204 
---------------- Step    60450 ----- CPU =    622.5657 (sec) ----------------
TotEng   =     -4443.7233 KinEng   =      1612.6074 Temp     =       270.0930 
PotEng   =     -6056.3307 E_bond   =       729.9287 E_angle  =       382.9093 
E_dihed  =        17.4631 E_impro  =         2.1244 E_vdwl   =       923.9489 
E_coul   =     25792.3802 E_long   =    -33905.0853 Press    =     -2106.3708 
---------------- Step    60500 ----- CPU =    623.0396 (sec) ----------------
TotEng   =     -4355.6844 KinEng   =      1689.6751 Temp     =       283.0010 
PotEng   =     -6045.3595 E_bond   =       694.0940 E_angle  =       400.0615 
E_dihed  =        17.4874 E_impro  =         3.2705 E_vdwl   =       917.0273 
E_coul   =     25829.5746 E_long   =    -33906.8749 Press    =      -621.9606 
---------------- Step    60550 ----- CPU =    623.4374 (sec) ----------------
TotEng   =     -4337.1555 KinEng   =      1688.2557 Temp     =       282.7633 
PotEng   =     -6025.4112 E_bond   =       739.2239 E_angle  =       409.2572 
E_dihed  =        19.9670 E_impro  =         2.0583 E_vdwl   =       881.0151 
E_coul   =     25826.0253 E_long   =    -33902.9580 Press    =     -1684.3709 
---------------- Step    60600 ----- CPU =    623.8363 (sec) ----------------
TotEng   =     -4406.4315 KinEng   =      1625.6015 Temp     =       272.2694 
PotEng   =     -6032.0330 E_bond   =       729.7082 E_angle  =       385.6107 
E_dihed  =        20.7221 E_impro  =         2.6161 E_vdwl   =       909.9100 
E_coul   =     25828.1215 E_long   =    -33908.7216 Press    =     -1618.8244 
---------------- Step    60650 ----- CPU =    624.2446 (sec) ----------------
TotEng   =     -4457.8596 KinEng   =      1618.7218 Temp     =       271.1171 
PotEng   =     -6076.5814 E_bond   =       715.6062 E_angle  =       392.8346 
E_dihed  =        16.9783 E_impro  =         1.8993 E_vdwl   =       920.5416 
E_coul   =     25785.9463 E_long   =    -33910.3877 Press    =       530.6368 
---------------- Step    60700 ----- CPU =    624.6606 (sec) ----------------
TotEng   =     -4480.3926 KinEng   =      1626.0507 Temp     =       272.3446 
PotEng   =     -6106.4433 E_bond   =       730.6383 E_angle  =       385.1879 
E_dihed  =        21.1314 E_impro  =         4.6988 E_vdwl   =       923.1103 
E_coul   =     25734.1017 E_long   =    -33905.3117 Press    =     -1486.9456 
---------------- Step    60750 ----- CPU =    625.0510 (sec) ----------------
TotEng   =     -4465.8534 KinEng   =      1667.0697 Temp     =       279.2148 
PotEng   =     -6132.9230 E_bond   =       699.6707 E_angle  =       395.0632 
E_dihed  =        21.5590 E_impro  =         1.9226 E_vdwl   =       846.6109 
E_coul   =     25804.9791 E_long   =    -33902.7285 Press    =     -1003.5109 
---------------- Step    60800 ----- CPU =    625.4488 (sec) ----------------
TotEng   =     -4444.3618 KinEng   =      1644.2058 Temp     =       275.3854 
PotEng   =     -6088.5677 E_bond   =       671.3248 E_angle  =       394.4969 
E_dihed  =        20.5124 E_impro  =         3.2641 E_vdwl   =       884.4014 
E_coul   =     25840.3436 E_long   =    -33902.9108 Press    =      -671.2882 
---------------- Step    60850 ----- CPU =    625.8441 (sec) ----------------
TotEng   =     -4381.1033 KinEng   =      1656.2462 Temp     =       277.4020 
PotEng   =     -6037.3495 E_bond   =       743.8017 E_angle  =       418.4117 
E_dihed  =        18.9574 E_impro  =         2.4625 E_vdwl   =       850.0458 
E_coul   =     25833.6002 E_long   =    -33904.6288 Press    =     -2509.9036 
---------------- Step    60900 ----- CPU =    626.2673 (sec) ----------------
TotEng   =     -4386.7988 KinEng   =      1687.3767 Temp     =       282.6160 
PotEng   =     -6074.1755 E_bond   =       712.3125 E_angle  =       391.4791 
E_dihed  =        19.7121 E_impro  =         2.3677 E_vdwl   =       891.4325 
E_coul   =     25814.1879 E_long   =    -33905.6672 Press    =     -1842.2403 
---------------- Step    60950 ----- CPU =    626.7829 (sec) ----------------
TotEng   =     -4384.6369 KinEng   =      1624.8847 Temp     =       272.1493 
PotEng   =     -6009.5216 E_bond   =       736.4619 E_angle  =       458.6989 
E_dihed  =        18.8617 E_impro  =         1.5006 E_vdwl   =       922.2388 
E_coul   =     25758.6944 E_long   =    -33905.9779 Press    =     -1175.8260 
---------------- Step    61000 ----- CPU =    627.4615 (sec) ----------------
TotEng   =     -4425.0622 KinEng   =      1668.5445 Temp     =       279.4619 
PotEng   =     -6093.6067 E_bond   =       704.3022 E_angle  =       384.0510 
E_dihed  =        19.0680 E_impro  =         3.0842 E_vdwl   =       808.1894 
E_coul   =     25895.3160 E_long   =    -33907.6176 Press    =     -2249.0020 
---------------- Step    61050 ----- CPU =    627.9379 (sec) ----------------
TotEng   =     -4440.4941 KinEng   =      1617.2676 Temp     =       270.8736 
PotEng   =     -6057.7616 E_bond   =       737.4440 E_angle  =       417.0835 
E_dihed  =        21.3291 E_impro  =         2.6748 E_vdwl   =       875.7276 
E_coul   =     25794.1443 E_long   =    -33906.1648 Press    =     -2080.2698 
---------------- Step    61100 ----- CPU =    628.3473 (sec) ----------------
TotEng   =     -4454.0375 KinEng   =      1634.7746 Temp     =       273.8058 
PotEng   =     -6088.8122 E_bond   =       692.2149 E_angle  =       414.6569 
E_dihed  =        20.4496 E_impro  =         2.8714 E_vdwl   =       834.2163 
E_coul   =     25856.3814 E_long   =    -33909.6027 Press    =     -2078.0333 
---------------- Step    61150 ----- CPU =    628.7498 (sec) ----------------
TotEng   =     -4399.2855 KinEng   =      1642.3864 Temp     =       275.0807 
PotEng   =     -6041.6719 E_bond   =       707.5846 E_angle  =       359.6195 
E_dihed  =        21.2696 E_impro  =         1.7783 E_vdwl   =       853.9342 
E_coul   =     25922.1766 E_long   =    -33908.0348 Press    =      -369.7474 
---------------- Step    61200 ----- CPU =    629.1710 (sec) ----------------
TotEng   =     -4377.6380 KinEng   =      1696.9762 Temp     =       284.2238 
PotEng   =     -6074.6142 E_bond   =       727.7258 E_angle  =       415.5970 
E_dihed  =        16.9214 E_impro  =         1.6494 E_vdwl   =       877.4471 
E_coul   =     25792.4596 E_long   =    -33906.4145 Press    =     -1973.3671 
---------------- Step    61250 ----- CPU =    629.7322 (sec) ----------------
TotEng   =     -4420.6969 KinEng   =      1646.0238 Temp     =       275.6899 
PotEng   =     -6066.7207 E_bond   =       703.9755 E_angle  =       394.7145 
E_dihed  =        20.4729 E_impro  =         2.4103 E_vdwl   =       858.9942 
E_coul   =     25858.5718 E_long   =    -33905.8597 Press    =      -180.9712 
---------------- Step    61300 ----- CPU =    630.1314 (sec) ----------------
TotEng   =     -4471.0562 KinEng   =      1655.2881 Temp     =       277.2416 
PotEng   =     -6126.3443 E_bond   =       716.9169 E_angle  =       389.7183 
E_dihed  =        16.3724 E_impro  =         0.9054 E_vdwl   =       855.9580 
E_coul   =     25801.5597 E_long   =    -33907.7750 Press    =     -2123.2609 
---------------- Step    61350 ----- CPU =    630.5371 (sec) ----------------
TotEng   =     -4476.1255 KinEng   =      1593.4232 Temp     =       266.8799 
PotEng   =     -6069.5487 E_bond   =       723.1585 E_angle  =       414.4814 
E_dihed  =        18.0807 E_impro  =         1.2171 E_vdwl   =       893.8530 
E_coul   =     25786.9928 E_long   =    -33907.3323 Press    =     -1373.2291 
---------------- Step    61400 ----- CPU =    630.9788 (sec) ----------------
TotEng   =     -4473.5821 KinEng   =      1578.9100 Temp     =       264.4491 
PotEng   =     -6052.4922 E_bond   =       709.6584 E_angle  =       408.2642 
E_dihed  =        17.5441 E_impro  =         1.4444 E_vdwl   =       915.8518 
E_coul   =     25798.5330 E_long   =    -33903.7880 Press    =     -1115.2779 
---------------- Step    61450 ----- CPU =    631.3731 (sec) ----------------
TotEng   =     -4431.2770 KinEng   =      1634.6975 Temp     =       273.7929 
PotEng   =     -6065.9746 E_bond   =       689.5087 E_angle  =       428.1659 
E_dihed  =        18.0557 E_impro  =         1.7131 E_vdwl   =       882.8612 
E_coul   =     25817.0356 E_long   =    -33903.3148 Press    =     -1062.4152 
---------------- Step 