LAMMPS (28 Feb 2019)
OMP_NUM_THREADS environment is not set. Defaulting to 1 thread. (src/comm.cpp:87)
  using 1 OpenMP thread(s) per MPI task
# REAX potential for Fe/O/H system
# .....

units		real

atom_style	charge
read_data	data.FeOH3
  orthogonal box = (0 0 0) to (25 25 25)
  1 by 1 by 1 MPI processor grid
  reading atoms ...
  105 atoms

pair_style	reax/c NULL
ERROR: Unknown pair style reax/c (src/force.cpp:263)
Last command: pair_style	reax/c NULL
